 -0.12000000000000000          0.0000000000000000     
 -0.11939999999999999          0.0000000000000000     
 -0.11879999999999999          0.0000000000000000     
 -0.11820000000000000         -8.3593267974220624E-018
 -0.11760000000000000         -3.3437307189688250E-017
 -0.11699999999999999         -3.3437307189688250E-017
 -0.11639999999999999         -6.6874614379376499E-017
 -0.11580000000000000         -2.6749845751750600E-016
 -0.11520000000000000          0.0000000000000000     
 -0.11459999999999999          0.0000000000000000     
 -0.11399999999999999          5.3499691503501199E-016
 -0.11340000000000000          5.3499691503501199E-016
 -0.11280000000000000          5.3499691503501199E-016
 -0.11219999999999999          1.0699938300700240E-015
 -0.11159999999999999          5.3499691503501199E-016
 -0.11100000000000000          1.0699938300700240E-015
 -0.11040000000000000          1.0699938300700240E-015
 -0.10979999999999999          1.0699938300700240E-015
 -0.10919999999999999          8.0249531961295879E-016
 -0.10860000000000000          2.6749845751750600E-016
 -0.10800000000000000          5.3499691503501199E-016
 -0.10740000000000000          0.0000000000000000     
 -0.10679999999999999          0.0000000000000000     
 -0.10620000000000000          0.0000000000000000     
 -0.10560000000000000         -2.1399876601400480E-015
 -0.10500000000000000         -4.2799753202800959E-015
 -0.10439999999999999          0.0000000000000000     
 -0.10380000000000000          4.2799753202800959E-015
 -0.10320000000000000         -1.1347842018274643E-013
 -0.10260000000000000         -2.3551679270011894E-013
 -0.10199999999999999         -2.3123682330906947E-013
 -0.10139999999999999         -2.2695684036549285E-013
 -0.10080000000000000         -9.6358522289757831E-014
 -0.10020000000000000          3.4239802562240768E-014
  -9.9599999999999994E-002     3.4239802562240768E-014
  -9.9000000000000005E-002     4.2799751508735065E-014
  -9.8400000000000001E-002     5.1359700455229362E-014
  -9.7799999999999998E-002     2.9543644548997439E-013
  -9.7199999999999995E-002     2.7831654082072221E-013
  -9.6599999999999991E-002     2.6975660203862328E-013
  -9.6000000000000002E-002     5.1383333352084115E-013
  -9.5399999999999999E-002     5.0527339473874222E-013
  -9.4799999999999995E-002     0.0000000000000000     
  -9.4200000000000006E-002    -3.4239802562240768E-014
  -9.3600000000000003E-002    -5.5663308164144443E-013
  -9.2999999999999999E-002    -5.5663308164144443E-013
  -9.2399999999999996E-002    -1.0447865446058802E-012
  -9.1799999999999993E-002    -1.0447865446058802E-012
  -9.1200000000000003E-002    -2.0210935789549689E-012
  -9.0600000000000000E-002    -1.9868538238265732E-012
  -8.9999999999999997E-002    -2.9289209946270489E-012
  -8.9399999999999993E-002    -2.8604412675298230E-012
  -8.8799999999999990E-002    -2.7234820301758056E-012
  -8.8200000000000001E-002    -3.6313094458478856E-012
  -8.7599999999999997E-002    -3.4943502084938682E-012
  -8.6999999999999994E-002    -3.3573911879802854E-012
  -8.6400000000000005E-002    -3.2204319506262680E-012
  -8.5800000000000001E-002    -1.1308587529942904E-012
  -8.5199999999999998E-002     1.0271940633146959E-012
  -8.4600000000000009E-002     3.0482875338494475E-012
  -8.3999999999999991E-002     5.1378606230612078E-012
  -8.3400000000000002E-002     5.0009016025476249E-012
  -8.2799999999999999E-002     8.7691702857495279E-012
  -8.2199999999999995E-002     1.2263520927924265E-011
  -8.1600000000000006E-002     1.1441765070119292E-011
  -8.0999999999999989E-002     1.0620010079676057E-011
  -8.0399999999999999E-002     9.7982550892328213E-012
  -7.9799999999999996E-002     8.9765000987895860E-012
  -7.9199999999999993E-002     1.2333890853089002E-011
  -7.8600000000000003E-002     3.9755980625610920E-012
  -7.8000000000000000E-002     3.7016795878530573E-012
  -7.7399999999999997E-002    -3.8348577785507487E-012
  -7.6800000000000007E-002    -1.1371395144954555E-011
  -7.6199999999999990E-002    -1.0549640154511319E-011
  -7.5600000000000001E-002    -9.4539662556791804E-012
  -7.4999999999999997E-002    -8.3582923568470413E-012
  -7.4399999999999994E-002    -7.2626188916957712E-012
  -7.3800000000000004E-002    -1.3977400833975473E-011
  -7.3200000000000001E-002    -1.3429564751921141E-011
  -7.2599999999999998E-002    -1.2881727802505072E-011
  -7.2000000000000008E-002    -1.2333890853089002E-011
  -7.1399999999999991E-002    -1.1238216954256863E-011
  -7.0800000000000002E-002    -1.0142543922786462E-011
  -7.0199999999999999E-002    -1.0142543922786462E-011
  -6.9599999999999995E-002    -1.0142543922786462E-011
  -6.9000000000000006E-002    -1.0142543922786462E-011
  -6.8400000000000002E-002    -2.6859129503842283E-011
  -6.7799999999999999E-002    -2.7954801667950946E-011
  -6.7200000000000010E-002    -6.0292298931230448E-011
  -6.6599999999999993E-002    -5.9196626767121785E-011
  -6.6000000000000003E-002    -5.8100951133566170E-011
  -6.5400000000000000E-002    -5.5909603335901892E-011
  -6.4799999999999996E-002    -5.5909603335901892E-011
  -6.4200000000000007E-002    -2.2476433908513727E-011
  -6.3600000000000004E-002     4.2198560618045278E-011
  -6.3000000000000000E-002     4.4389908415709556E-011
  -6.2399999999999997E-002     4.2198560618045278E-011
  -6.1800000000000001E-002     7.3440385717216117E-011
  -6.1199999999999997E-002     6.6866338854776330E-011
  -6.0600000000000001E-002     6.0292298931230448E-011
  -5.9999999999999998E-002     5.3718259007684566E-011
  -5.9400000000000001E-002     4.9335563412356009E-011
  -5.8799999999999998E-002     4.4952867817027453E-011
  -5.8200000000000002E-002     4.0570175691145849E-011
  -5.7599999999999998E-002     4.0570175691145849E-011
  -5.6999999999999995E-002     3.6187480095817293E-011
  -5.6400000000000006E-002     4.0570175691145849E-011
  -5.5800000000000002E-002     4.4952867817027453E-011
  -5.5199999999999999E-002     4.9335563412356009E-011
  -5.4599999999999996E-002    -8.7653894559336365E-012
  -5.4000000000000006E-002    -4.3826947279668182E-012
  -5.3400000000000003E-002     4.3826947279668182E-012
  -5.2800000000000000E-002     8.7653894559336365E-012
  -5.2199999999999996E-002     8.7653894559336365E-012
  -5.1600000000000007E-002     8.7653894559336365E-012
  -5.1000000000000004E-002     0.0000000000000000     
  -5.0400000000000000E-002    -1.2496728651889555E-010
  -4.9799999999999997E-002    -1.2496728651889555E-010
  -4.9200000000000008E-002    -1.2496728651889555E-010
  -4.8600000000000004E-002    -1.1620190226713234E-010
  -4.8000000000000001E-002    -2.3240380453426468E-010
  -4.7399999999999998E-002    -2.2363841334360757E-010
  -4.6800000000000008E-002    -2.1487303603073826E-010
  -4.6200000000000005E-002    -2.1487303603073826E-010
  -4.5600000000000002E-002    -2.1487303603073826E-010
  -4.4999999999999998E-002    -2.1487303603073826E-010
  -4.4400000000000009E-002    -2.1487303603073826E-010
  -4.3800000000000006E-002    -2.1487303603073826E-010
  -4.3200000000000002E-002    -2.1487303603073826E-010
  -4.2599999999999999E-002    -2.1487303603073826E-010
  -4.1999999999999996E-002    -1.9734225364942404E-010
  -4.1400000000000006E-002     5.2592333266154867E-011
  -4.0800000000000003E-002     3.5061557823734546E-011
  -4.0200000000000000E-002     2.8499613780041955E-010
  -3.9599999999999996E-002     5.3493071083821064E-010
  -3.9000000000000007E-002     7.6733452925026313E-010
  -3.8400000000000004E-002     7.4980377462452452E-010
  -3.7800000000000000E-002     7.3227296448763468E-010
  -3.7199999999999997E-002     4.4727682668721513E-010
  -3.6600000000000008E-002     4.1221528968016230E-010
  -3.6000000000000004E-002     3.7715372491753385E-010
  -3.5400000000000001E-002     3.4209216015490540E-010
  -3.4799999999999998E-002     3.2456140552916679E-010
  -3.4200000000000008E-002     3.0703062314785257E-010
  -3.3600000000000005E-002     7.4626804735800079E-011
  -3.3000000000000002E-002    -1.7530778217977883E-010
  -3.2399999999999998E-002    -3.9018080433272928E-010
  -3.1800000000000009E-002    -5.8752308573772893E-010
  -3.1200000000000006E-002    -5.5246152097510048E-010
  -3.0600000000000002E-002    -4.9986914607558219E-010
  -2.9999999999999999E-002    -5.8977489558742491E-010
  -2.9400000000000009E-002    -6.6214989047352901E-010
  -2.8800000000000006E-002    -6.0955751557401072E-010
  -2.8200000000000003E-002    -5.5696519618564366E-010
  -2.7600000000000000E-002    -3.9693634490411966E-010
  -2.7000000000000010E-002    -3.9693634490411966E-010
  -2.6400000000000007E-002    -2.7196905838522412E-010
  -2.5800000000000003E-002    -1.6453254036985498E-010
  -2.5200000000000000E-002    -9.2157587117114304E-011
  -2.4600000000000011E-002    -2.2518464957294038E-012
  -2.4000000000000007E-002     7.0123115647469092E-011
  -2.3400000000000004E-002     2.0498171215965755E-010
  -2.2800000000000001E-002     2.9488744779371245E-010
  -2.2199999999999998E-002     3.6726241492424094E-010
  -2.1600000000000008E-002     3.3220085016161249E-010
  -2.1000000000000005E-002     3.8591910223040315E-010
  -2.0400000000000001E-002     4.7964460181404434E-010
  -1.9799999999999998E-002     5.1965182157331924E-010
  -1.9200000000000009E-002     5.3622761786442652E-010
  -1.8600000000000005E-002     5.4594795351192715E-010
  -1.8000000000000002E-002     5.3223692120241139E-010
  -1.7399999999999999E-002     3.8917588596198982E-010
  -1.6800000000000009E-002     2.1049033349651580E-010
  -1.6200000000000006E-002     8.1140351382291698E-011
  -1.5600000000000003E-002    -1.7975097799105555E-010
  -1.4999999999999999E-002    -4.4612066818494611E-010
  -1.4400000000000010E-002    -7.1084682584654502E-010
  -1.3800000000000007E-002    -8.4622303608838934E-010
  -1.3200000000000003E-002    -8.4622303608838934E-010
  -1.2600000000000000E-002    -8.3745765877552003E-010
  -1.2000000000000011E-002    -8.1116147132576089E-010
  -1.1400000000000007E-002    -5.3493071083821064E-010
  -1.0800000000000004E-002    -5.0863457889960273E-010
  -1.0200000000000001E-002    -2.4116919572492179E-010
  -9.6000000000000113E-003     4.3826945544944707E-011
  -9.0000000000000080E-003     3.2005770256304800E-010
  -8.4000000000000047E-003     5.8752308573772893E-010
  -7.8000000000000014E-003     8.3745765877552003E-010
  -7.2000000000000119E-003     8.3745765877552003E-010
  -6.6000000000000086E-003     5.6999227560083909E-010
  -6.0000000000000053E-003     3.2005770256304800E-010
  -5.4000000000000020E-003     3.2005770256304800E-010
  -4.7999999999999987E-003     5.6999227560083909E-010
  -4.2000000000000093E-003     5.6999227560083909E-010
  -3.6000000000000060E-003     5.6999227560083909E-010
  -3.0000000000000027E-003     5.6999227560083909E-010
  -2.3999999999999994E-003     5.6999227560083909E-010
  -1.8000000000000099E-003     5.6999227560083909E-010
  -1.2000000000000066E-003     6.0505384036346754E-010
  -6.0000000000000331E-004     1.7530778217977883E-010
   0.0000000000000000          2.1036933306461947E-010
   5.9999999999998943E-004    -2.1937672511906925E-010
   1.1999999999999927E-003    -6.1406124629570513E-010
   1.7999999999999960E-003    -1.0438072628460304E-009
   2.3999999999999994E-003    -9.3862262406929631E-010
   2.9999999999999888E-003    -8.3343792978141096E-010
   3.5999999999999921E-003    -6.5813016147941994E-010
   4.1999999999999954E-003    -4.8282239317742892E-010
   4.7999999999999987E-003    -2.7245306011280945E-010
   5.3999999999999881E-003     8.0393981402582249E-012
   6.0000000000000053E-003     2.5347030030431483E-010
   6.5999999999999948E-003     5.3396276289419120E-010
   7.1999999999999842E-003    -1.8528314993382367E-010
   7.8000000000000014E-003     9.5209291839370991E-011
   8.3999999999999908E-003    -8.9105875455963712E-011
   8.9999999999999802E-003    -2.3835947104977606E-010
   9.5999999999999974E-003    -4.2267464528400467E-010
   1.0199999999999987E-002    -5.7192828251118044E-010
   1.0800000000000004E-002    -6.5105876245752370E-010
   1.1399999999999993E-002    -9.4506225067902960E-010
   1.1999999999999983E-002    -1.4188772379242209E-009
   1.2600000000000000E-002    -1.7875075863926781E-009
   1.3199999999999990E-002    -2.3008879246333436E-009
   1.3799999999999979E-002    -2.9239564103278326E-009
   1.4399999999999996E-002    -3.6917751078391348E-009
   1.4999999999999986E-002    -4.6394048602849125E-009
   1.5600000000000003E-002    -5.1617927709912692E-009
   1.6199999999999992E-002    -5.8289302273806243E-009
   1.6799999999999982E-002    -6.5706946550392331E-009
   1.7399999999999999E-002    -7.4221473411739680E-009
   1.7999999999999988E-002    -8.3131652672818745E-009
   1.8600000000000005E-002    -9.1889047482140995E-009
   1.9199999999999995E-002    -1.0264237459978176E-008
   1.9799999999999984E-002    -1.1344074124508552E-008
   2.0400000000000001E-002    -1.2678349037287262E-008
   2.0999999999999991E-002    -1.3999597037184230E-008
   2.1599999999999980E-002    -1.5602706682216194E-008
   2.2199999999999998E-002    -1.7452613576551812E-008
   2.2799999999999987E-002    -1.9656756222730110E-008
   2.3400000000000004E-002    -2.2020042678150276E-008
   2.3999999999999994E-002    -2.4712395685355659E-008
   2.4599999999999983E-002    -2.7729994300784711E-008
   2.5200000000000000E-002    -3.1063287053711974E-008
   2.5799999999999990E-002    -3.4806003412768405E-008
   2.6399999999999979E-002    -3.8972977733919834E-008
   2.6999999999999996E-002    -4.3600397958698522E-008
   2.7599999999999986E-002    -4.8745015135409631E-008
   2.8200000000000003E-002    -5.4541693828014104E-008
   2.8799999999999992E-002    -6.0919745692444849E-008
   2.9399999999999982E-002    -6.8076509762704518E-008
   2.9999999999999999E-002    -7.5957210299293365E-008
   3.0599999999999988E-002    -8.4765751751092466E-008
   3.1199999999999978E-002    -9.4548767037849757E-008
   3.1799999999999995E-002    -1.0547621087653170E-007
   3.2399999999999984E-002    -1.1733546045888943E-007
   3.3000000000000002E-002    -1.3052667213742097E-007
   3.3599999999999991E-002    -1.4482134247373324E-007
   3.4199999999999980E-002    -1.6034887551086285E-007
   3.4799999999999998E-002    -1.7725403722579358E-007
   3.5399999999999987E-002    -1.9565963782497420E-007
   3.6000000000000004E-002    -2.1570608055299090E-007
   3.6599999999999994E-002    -2.3751178446218546E-007
   3.7199999999999983E-002    -2.6121276164303708E-007
   3.7800000000000000E-002    -2.8692744535874226E-007
   3.8399999999999990E-002    -3.1465808092434600E-007
   3.8999999999999979E-002    -3.4503179335843015E-007
   3.9599999999999996E-002    -3.7779207673338533E-007
   4.0199999999999986E-002    -4.1378973492101068E-007
   4.0800000000000003E-002    -4.5241964130582346E-007
   4.1399999999999992E-002    -4.9453257133791340E-007
   4.1999999999999982E-002    -5.3997069926481345E-007
   4.2599999999999999E-002    -5.8982601558454917E-007
   4.3199999999999988E-002    -6.4344072825406329E-007
   4.3799999999999978E-002    -7.0140703201104770E-007
   4.4399999999999995E-002    -7.6378188396120095E-007
   4.4999999999999984E-002    -8.3090742464264622E-007
   4.5600000000000002E-002    -9.0337567826281884E-007
   4.6199999999999991E-002    -9.8113639523944585E-007
   4.6799999999999981E-002    -1.0643539098964538E-006
   4.7399999999999998E-002    -1.1534054920048220E-006
   4.7999999999999987E-002    -1.2484907756515895E-006
   4.8599999999999977E-002    -1.3499869737643166E-006
   4.9199999999999994E-002    -1.4582184348910232E-006
   4.9799999999999983E-002    -1.5734374301246135E-006
   5.0400000000000000E-002    -1.6960387938524946E-006
   5.0999999999999990E-002    -1.8264169057147228E-006
   5.1599999999999979E-002    -1.9645742668217281E-006
   5.2199999999999996E-002    -2.1110656689415919E-006
   5.2799999999999986E-002    -2.2660356080450583E-006
   5.3400000000000003E-002    -2.4298065000039060E-006
   5.3999999999999992E-002    -2.6028430966107408E-006
   5.4599999999999982E-002    -2.7851829145220108E-006
   5.5199999999999999E-002    -2.9773079859296558E-006
   5.5799999999999988E-002    -3.1792010304343421E-006
   5.6399999999999978E-002    -3.3911294394783909E-006
   5.6999999999999995E-002    -3.6133781122771325E-006
   5.7599999999999985E-002    -3.8459097595477942E-006
   5.8200000000000002E-002    -4.0888121475290973E-006
   5.8799999999999991E-002    -4.3424756768217776E-006
   5.9399999999999981E-002    -4.6067179937381297E-006
   5.9999999999999998E-002    -4.8818915274750907E-006
   6.0599999999999987E-002    -5.1678048293979373E-006
   6.1199999999999977E-002    -5.4645238378725480E-006
   6.1799999999999994E-002    -5.7719439610082190E-006
   6.2399999999999983E-002    -6.0899592426721938E-006
   6.3000000000000000E-002    -6.4182499954767991E-006
   6.3599999999999990E-002    -6.7565219978860114E-006
   6.4199999999999979E-002    -7.1044714786694385E-006
   6.4799999999999996E-002    -7.4615973062464036E-006
   6.5399999999999986E-002    -7.8271741585922427E-006
   6.5999999999999975E-002    -8.2007172750309110E-006
   6.6599999999999993E-002    -8.5814381236559711E-006
   6.7199999999999982E-002    -8.9685090642888099E-006
   6.7799999999999999E-002    -9.3609169198316522E-006
   6.8399999999999989E-002    -9.7577094493317418E-006
   6.8999999999999978E-002    -1.0157818906009197E-005
   6.9599999999999995E-002    -1.0559975635260344E-005
   7.0199999999999985E-002    -1.0962986380036455E-005
   7.0799999999999974E-002    -1.1365457794454414E-005
   7.1399999999999991E-002    -1.1765944691433106E-005
   7.1999999999999981E-002    -1.2162807252025232E-005
   7.2599999999999998E-002    -1.2554434761113953E-005
   7.3199999999999987E-002    -1.2938974577991758E-005
   7.3799999999999977E-002    -1.3314681382325944E-005
   7.4399999999999994E-002    -1.3679532457899768E-005
   7.4999999999999983E-002    -1.4031450518814381E-005
   7.5600000000000001E-002    -1.4368381926033180E-005
   7.6199999999999990E-002    -1.4688027476950083E-005
   7.6799999999999979E-002    -1.4988117982284166E-005
   7.7399999999999997E-002    -1.5266292393789627E-005
   7.7999999999999986E-002    -1.5520139641012065E-005
   7.8599999999999975E-002    -1.5747231373097748E-005
   7.9199999999999993E-002    -1.5945021004881710E-005
   7.9799999999999982E-002    -1.6110989236040041E-005
   8.0399999999999999E-002    -1.6242593119386584E-005
   8.0999999999999989E-002    -1.6337267879862338E-005
   8.1599999999999978E-002    -1.6392416000599042E-005
   8.2199999999999995E-002    -1.6405501810368150E-005
   8.2799999999999985E-002    -1.6373947801184841E-005
   8.3399999999999974E-002    -1.6295220120809972E-005
   8.3999999999999991E-002    -1.6166817658813670E-005
   8.4599999999999981E-002    -1.5986282960511744E-005
   8.5199999999999998E-002    -1.5751227692817338E-005
   8.5799999999999987E-002    -1.5459314454346895E-005
   8.6399999999999977E-002    -1.5108346815395635E-005
   8.6999999999999994E-002    -1.4696224752697162E-005
   8.7599999999999983E-002    -1.4220983757695649E-005
   8.8199999999999973E-002    -1.3680871234100778E-005
   8.8799999999999990E-002    -1.3074294656689744E-005
   8.9399999999999979E-002    -1.2399888873915188E-005
   8.9999999999999997E-002    -1.1656539754767437E-005
   9.0599999999999986E-002    -1.0843376912816893E-005
   9.1199999999999976E-002    -9.9598255474120378E-006
   9.1799999999999993E-002    -9.0055882537853904E-006
   9.2399999999999982E-002    -7.9806977737462148E-006
   9.2999999999999999E-002    -6.8854842538712546E-006
   9.3599999999999989E-002    -5.7205957091355231E-006
   9.4199999999999978E-002    -4.4870239435113035E-006
   9.4799999999999995E-002    -3.1860899980529211E-006
   9.5399999999999985E-002    -1.8194720041719847E-006
   9.5999999999999974E-002    -3.8917431766094523E-007
   9.6599999999999991E-002     1.1024425248251646E-006
   9.7199999999999981E-002     2.6526561214268440E-006
   9.7799999999999998E-002     4.2584060793160461E-006
   9.8399999999999987E-002     5.9162784964428283E-006
   9.8999999999999977E-002     7.6225110205996316E-006
   9.9599999999999994E-002     9.3730013759341091E-006
  0.10019999999999998          1.1163316230522469E-005
  0.10079999999999997          1.2988689377380069E-005
  0.10139999999999999          1.4844046745565720E-005
  0.10199999999999998          1.6724021406844258E-005
  0.10260000000000000          1.8622955394675955E-005
  0.10319999999999999          2.0534920622594655E-005
  0.10379999999999998          2.2453750716522336E-005
  0.10439999999999999          2.4373028281843290E-005
  0.10499999999999998          2.6286132197128609E-005
  0.10559999999999997          2.8186255804030225E-005
  0.10619999999999999          3.0066406907280907E-005
  0.10679999999999998          3.1919458706397563E-005
  0.10740000000000000          3.3738157071638852E-005
  0.10799999999999998          3.5515153285814449E-005
  0.10859999999999997          3.7243054975988343E-005
  0.10919999999999999          3.8914422475500032E-005
  0.10979999999999998          4.0521834307583049E-005
  0.11040000000000000          4.2057901737280190E-005
  0.11099999999999999          4.3515348806977272E-005
  0.11159999999999998          4.4887019612360746E-005
  0.11219999999999999          4.6165921958163381E-005
  0.11279999999999998          4.7345300117740408E-005
  0.11339999999999997          4.8418667574878782E-005
  0.11399999999999999          4.9379850679542869E-005
  0.11459999999999998          5.0223028665641323E-005
  0.11520000000000000          5.0942780944751576E-005
  0.11579999999999999          5.1534141675801948E-005
  0.11639999999999998          5.1992610679008067E-005
  0.11699999999999999          5.2314197091618553E-005
  0.11759999999999998          5.2495452109724283E-005
  0.11819999999999997          5.2533465350279585E-005
  0.11879999999999999          5.2425926696741953E-005
  0.11939999999999998          5.2171104471199214E-005
  0.12000000000000000          5.1767867262242362E-005
  0.12059999999999998          5.1215694838901982E-005
  0.12119999999999997          5.0514670874690637E-005
  0.12179999999999999          4.9665497499518096E-005
  0.12239999999999998          4.8669480747776106E-005
  0.12299999999999997          4.7528545110253617E-005
  0.12359999999999999          4.6245208068285137E-005
  0.12419999999999998          4.4822572817793116E-005
  0.12479999999999999          4.3264346459181979E-005
  0.12539999999999998          4.1574796341592446E-005
  0.12599999999999997          3.9758746424922720E-005
  0.12659999999999999          3.7821566365892068E-005
  0.12719999999999998          3.5769167880062014E-005
  0.12779999999999997          3.3607939258217812E-005
  0.12839999999999999          3.1344767194241285E-005
  0.12899999999999998          2.8986991310375743E-005
  0.12959999999999999          2.6542362320469692E-005
  0.13019999999999998          2.4019060219870880E-005
  0.13079999999999997          2.1425605154945515E-005
  0.13139999999999996          1.8770851966110058E-005
  0.13200000000000001          1.6063964721979573E-005
  0.13260000000000000          1.3314346688275691E-005
  0.13319999999999999          1.0531629413890187E-005
  0.13379999999999997          7.7255999713088386E-006
  0.13439999999999996          4.9061682148021646E-006
  0.13500000000000001          2.0833178950852016E-006
  0.13560000000000000         -7.3293693958476069E-007
  0.13619999999999999         -3.5326490888110129E-006
  0.13679999999999998         -6.3059351305128075E-006
  0.13739999999999997         -9.0430685304454528E-006
  0.13799999999999996         -1.1734533472917974E-005
  0.13860000000000000         -1.4371062206919305E-005
  0.13919999999999999         -1.6943693481152877E-005
  0.13979999999999998         -1.9443818018771708E-005
  0.14039999999999997         -2.1863255824428052E-005
  0.14099999999999996         -2.4194239813368767E-005
  0.14160000000000000         -2.6429510398884304E-005
  0.14219999999999999         -2.8562337320181541E-005
  0.14279999999999998         -3.0586495995521545E-005
  0.14339999999999997         -3.2496369385626167E-005
  0.14399999999999996         -3.4286906156921759E-005
  0.14460000000000001         -3.5953660699306056E-005
  0.14520000000000000         -3.7492794945137575E-005
  0.14579999999999999         -3.8901063817320392E-005
  0.14639999999999997         -4.0175851609092206E-005
  0.14699999999999996         -4.1315131966257468E-005
  0.14759999999999995         -4.2317475163144991E-005
  0.14820000000000000         -4.3182022636756301E-005
  0.14879999999999999         -4.3908497900702059E-005
  0.14939999999999998         -4.4497177441371605E-005
  0.14999999999999997         -4.4948883441975340E-005
  0.15059999999999996         -4.5264940126799047E-005
  0.15120000000000000         -4.5447181037161499E-005
  0.15179999999999999         -4.5497934479499236E-005
  0.15239999999999998         -4.5419979869620875E-005
  0.15299999999999997         -4.5216536818770692E-005
  0.15359999999999996         -4.4891243305755779E-005
  0.15420000000000000         -4.4448152038967237E-005
  0.15479999999999999         -4.3891661334782839E-005
  0.15539999999999998         -4.3226529669482261E-005
  0.15599999999999997         -4.2457842937437817E-005
  0.15659999999999996         -4.1590978071326390E-005
  0.15720000000000001         -4.0631592128193006E-005
  0.15780000000000000         -3.9585564081789926E-005
  0.15839999999999999         -3.8459013012470677E-005
  0.15899999999999997         -3.7258236261550337E-005
  0.15959999999999996         -3.5989687603432685E-005
  0.16019999999999995         -3.4659944503800943E-005
  0.16080000000000000         -3.3275675377808511E-005
  0.16139999999999999         -3.1843599572312087E-005
  0.16199999999999998         -3.0370469175977632E-005
  0.16259999999999997         -2.8863001716672443E-005
  0.16319999999999996         -2.7327874704496935E-005
  0.16380000000000000         -2.5771663786144927E-005
  0.16439999999999999         -2.4200810003094375E-005
  0.16499999999999998         -2.2621583411819302E-005
  0.16559999999999997         -2.1040068531874567E-005
  0.16619999999999996         -1.9462109776213765E-005
  0.16680000000000000         -1.7893298718263395E-005
  0.16739999999999999         -1.6338941350113600E-005
  0.16799999999999998         -1.4804045349592343E-005
  0.16859999999999997         -1.3293308256834280E-005
  0.16919999999999996         -1.1811098374892026E-005
  0.16980000000000001         -1.0361456588725559E-005
  0.17040000000000000         -8.9480772658134811E-006
  0.17099999999999999         -7.5743173511000350E-006
  0.17159999999999997         -6.2431940932583530E-006
  0.17219999999999996         -4.9573918659007177E-006
  0.17279999999999995         -3.7192560284893261E-006
  0.17340000000000000         -2.5308040676463861E-006
  0.17399999999999999         -1.3937424228060991E-006
  0.17459999999999998         -3.0947066420594638E-007
  0.17519999999999997          7.2091353331416030E-007
  0.17579999999999996          1.6965877875918522E-006
  0.17640000000000000          2.6170037017436698E-006
  0.17699999999999999          3.4818644962797407E-006
  0.17759999999999998          4.2911101445497479E-006
  0.17819999999999997          5.0449020818632562E-006
  0.17879999999999996          5.7436127463006414E-006
  0.17940000000000000          6.3877978391246870E-006
  0.17999999999999999          6.9781904130650219E-006
  0.18059999999999998          7.5156867751502432E-006
  0.18119999999999997          8.0013278420665301E-006
  0.18179999999999996          8.4362845882424153E-006
  0.18239999999999995          8.8218575911014341E-006
  0.18300000000000000          9.1594511104631238E-006
  0.18359999999999999          9.4505794550059363E-006
  0.18419999999999997          9.6968433354049921E-006
  0.18479999999999996          9.8999316833214834E-006
  0.18539999999999995          1.0061604371003341E-005
  0.18600000000000000          1.0183695849264041E-005
  0.18659999999999999          1.0268096957588568E-005
  0.18719999999999998          1.0316748557670508E-005
  0.18779999999999997          1.0331640623917338E-005
  0.18839999999999996          1.0314789506082889E-005
  0.18900000000000000          1.0268243386235554E-005
  0.18959999999999999          1.0194049536949024E-005
  0.19019999999999998          1.0094264325744007E-005
  0.19079999999999997          9.9709341156994924E-006
  0.19139999999999996          9.8260788945481181E-006
  0.19200000000000000          9.6616922746761702E-006
  0.19259999999999999          9.4797278507030569E-006
  0.19319999999999998          9.2820882855448872E-006
  0.19379999999999997          9.0706271294038743E-006
  0.19439999999999996          8.8471306298743002E-006
  0.19499999999999995          8.6133222794160247E-006
  0.19560000000000000          8.3708609963650815E-006
  0.19619999999999999          8.1213274825131521E-006
  0.19679999999999997          7.8662305895704776E-006
  0.19739999999999996          7.6069964052294381E-006
  0.19799999999999995          7.3449700721539557E-006
  0.19860000000000000          7.0814071477798279E-006
  0.19919999999999999          6.8174726948200259E-006
  0.19979999999999998          6.5542431002540980E-006
  0.20039999999999997          6.2926892496761866E-006
  0.20099999999999996          6.0336883507261518E-006
  0.20160000000000000          5.7780180213740095E-006
  0.20219999999999999          5.5263567446672823E-006
  0.20279999999999998          5.2792879614571575E-006
  0.20339999999999997          5.0373041631246451E-006
  0.20399999999999996          4.8008123485487886E-006
  0.20459999999999995          4.5701399358222261E-006
  0.20519999999999999          4.3455438571982086E-006
  0.20579999999999998          4.1272191992902663E-006
  0.20639999999999997          3.9153064790298231E-006