 -0.12000000000000000          0.0000000000000000     
 -0.11939999999999999         -3.8894548026746634E-008
 -0.11879999999999999         -1.2059221887739113E-007
 -0.11820000000000000         -2.4802915277177817E-007
 -0.11760000000000000         -4.2315929249525652E-007
 -0.11699999999999999         -6.4700202528911177E-007
 -0.11639999999999999         -9.1974629867763724E-007
 -0.11580000000000000         -1.2409059308993164E-006
 -0.11520000000000000         -1.6095208366095903E-006
 -0.11459999999999999         -2.0243930975993862E-006
 -0.11399999999999999         -2.4843511710059829E-006
 -0.11340000000000000         -2.9885268304497004E-006
 -0.11280000000000000         -3.5366372230782872E-006
 -0.11219999999999999         -4.1292610148957465E-006
 -0.11159999999999999         -4.7680946408945601E-006
 -0.11100000000000000         -5.4561878641834483E-006
 -0.11040000000000000         -6.1981436374480836E-006
 -0.10979999999999999         -7.0002870415919460E-006
 -0.10919999999999999         -7.8707935244892724E-006
 -0.10860000000000000         -8.8197839431813918E-006
 -0.10800000000000000         -9.8593873190111481E-006
 -0.10740000000000000         -1.1003766303474549E-005
 -0.10679999999999999         -1.2269130820641294E-005
 -0.10620000000000000         -1.3673728062713053E-005
 -0.10560000000000000         -1.5237827938108239E-005
 -0.10500000000000000         -1.6983709429041483E-005
 -0.10439999999999999         -1.8935650587081909E-005
 -0.10380000000000000         -2.1119927623658441E-005
 -0.10320000000000000         -2.3564860384794883E-005
 -0.10260000000000000         -2.6300846002413891E-005
 -0.10199999999999999         -2.9360451662796549E-005
 -0.10139999999999999         -3.2778541935840622E-005
 -0.10080000000000000         -3.6592420656234026E-005
 -0.10020000000000000         -4.0842027374310419E-005
  -9.9599999999999994E-002    -4.5570184738608077E-005
  -9.9000000000000005E-002    -5.0822847697418183E-005
  -9.8400000000000001E-002    -5.6649420002941042E-005
  -9.7799999999999998E-002    -6.3103085267357528E-005
  -9.7199999999999995E-002    -7.0241185312625021E-005
  -9.6599999999999991E-002    -7.8125602158252150E-005
  -9.6000000000000002E-002    -8.6823194578755647E-005
  -9.5399999999999999E-002    -9.6406198281329125E-005
  -9.4799999999999995E-002    -1.0695266973925754E-004
  -9.4200000000000006E-002    -1.1854695912916213E-004
  -9.3600000000000003E-002    -1.3128011778462678E-004
  -9.2999999999999999E-002    -1.4525037840940058E-004
  -9.2399999999999996E-002    -1.6056353342719376E-004
  -9.1799999999999993E-002    -1.7733337881509215E-004
  -9.1200000000000003E-002    -1.9568213610909879E-004
  -9.0600000000000000E-002    -2.1574078709818423E-004
  -8.9999999999999997E-002    -2.3764955403748900E-004
  -8.9399999999999993E-002    -2.6155813247896731E-004
  -8.8799999999999990E-002    -2.8762611327692866E-004
  -8.8200000000000001E-002    -3.1602336093783379E-004
  -8.7599999999999997E-002    -3.4693029010668397E-004
  -8.6999999999999994E-002    -3.8053825846873224E-004
  -8.6400000000000005E-002    -4.1704985778778791E-004
  -8.5800000000000001E-002    -4.5667917584069073E-004
  -8.5199999999999998E-002    -4.9965223297476768E-004
  -8.4600000000000009E-002    -5.4620730224996805E-004
  -8.3999999999999991E-002    -5.9659499675035477E-004
  -8.3400000000000002E-002    -6.5107858972623944E-004
  -8.2799999999999999E-002    -7.0993450935930014E-004
  -8.2199999999999995E-002    -7.7345198951661587E-004
  -8.1600000000000006E-002    -8.4193365182727575E-004
  -8.0999999999999989E-002    -9.1569527285173535E-004
  -8.0399999999999999E-002    -9.9506566766649485E-004
  -7.9799999999999996E-002    -1.0803870391100645E-003
  -7.9199999999999993E-002    -1.1720140464603901E-003
  -7.8600000000000003E-002    -1.2703138636425138E-003
  -7.8000000000000000E-002    -1.3756661210209131E-003
  -7.7399999999999997E-002    -1.4884613920003176E-003
  -7.6800000000000007E-002    -1.6091013094410300E-003
  -7.6199999999999990E-002    -1.7379972850903869E-003
  -7.5600000000000001E-002    -1.8755699275061488E-003
  -7.4999999999999997E-002    -2.0222477614879608E-003
  -7.4399999999999994E-002    -2.1784654818475246E-003
  -7.3800000000000004E-002    -2.3446639534085989E-003
  -7.3200000000000001E-002    -2.5212869513779879E-003
  -7.2599999999999998E-002    -2.7087810449302197E-003
  -7.2000000000000008E-002    -2.9075925704091787E-003
  -7.1399999999999991E-002    -3.1181662343442440E-003
  -7.0800000000000002E-002    -3.3409430179744959E-003
  -7.0199999999999999E-002    -3.5763562191277742E-003
  -6.9599999999999995E-002    -3.8248319178819656E-003
  -6.9000000000000006E-002    -4.0867836214601994E-003
  -6.8400000000000002E-002    -4.3626106344163418E-003
  -6.7799999999999999E-002    -4.6526943333446980E-003
  -6.7200000000000010E-002    -4.9573937430977821E-003
  -6.6599999999999993E-002    -5.2770450711250305E-003
  -6.6000000000000003E-002    -5.6119561195373535E-003
  -6.5400000000000000E-002    -5.9624016284942627E-003
  -6.4799999999999996E-002    -6.3286195509135723E-003
  -6.4200000000000007E-002    -6.7108091898262501E-003
  -6.3600000000000004E-002    -7.1091246791183949E-003
  -6.3000000000000000E-002    -7.5236707925796509E-003
  -6.2399999999999997E-002    -7.9544987529516220E-003
  -6.1800000000000001E-002    -8.4016015753149986E-003
  -6.1199999999999997E-002    -8.8649084791541100E-003
  -6.0600000000000001E-002    -9.3442834913730621E-003
  -5.9999999999999998E-002    -9.8395133391022682E-003
  -5.9400000000000001E-002    -1.0350313037633896E-002
  -5.8799999999999998E-002    -1.0876311920583248E-002
  -5.8200000000000002E-002    -1.1417053639888763E-002
  -5.7599999999999998E-002    -1.1971989646553993E-002
  -5.6999999999999995E-002    -1.2540477328002453E-002
  -5.6400000000000006E-002    -1.3121770694851875E-002
  -5.5800000000000002E-002    -1.3715024106204510E-002
  -5.5199999999999999E-002    -1.4319282025098801E-002
  -5.4599999999999996E-002    -1.4933475293219090E-002
  -5.4000000000000006E-002    -1.5556424856185913E-002
  -5.3400000000000003E-002    -1.6186829656362534E-002
  -5.2800000000000000E-002    -1.6823275014758110E-002
  -5.2199999999999996E-002    -1.7464220523834229E-002
  -5.1600000000000007E-002    -1.8108002841472626E-002
  -5.1000000000000004E-002    -1.8752843141555786E-002
  -5.0400000000000000E-002    -1.9396830350160599E-002
  -4.9799999999999997E-002    -2.0037937909364700E-002
  -4.9200000000000008E-002    -2.0674014464020729E-002
  -4.8600000000000004E-002    -2.1302791312336922E-002
  -4.8000000000000001E-002    -2.1921886131167412E-002
  -4.7399999999999998E-002    -2.2528797388076782E-002
  -4.6800000000000008E-002    -2.3120921105146408E-002
  -4.6200000000000005E-002    -2.3695550858974457E-002
  -4.5600000000000002E-002    -2.4249883368611336E-002
  -4.4999999999999998E-002    -2.4781025946140289E-002
  -4.4400000000000009E-002    -2.5286002084612846E-002
  -4.3800000000000006E-002    -2.5761764496564865E-002
  -4.3200000000000002E-002    -2.6205202564597130E-002
  -4.2599999999999999E-002    -2.6613153517246246E-002
  -4.1999999999999996E-002    -2.6982417330145836E-002
  -4.1400000000000006E-002    -2.7309762313961983E-002
  -4.0800000000000003E-002    -2.7591940015554428E-002
  -4.0200000000000000E-002    -2.7825709432363510E-002
  -3.9599999999999996E-002    -2.8007835149765015E-002
  -3.9000000000000007E-002    -2.8135115280747414E-002
  -3.8400000000000004E-002    -2.8204394504427910E-002
  -3.7800000000000000E-002    -2.8212584555149078E-002
  -3.7199999999999997E-002    -2.8156666085124016E-002
  -3.6600000000000008E-002    -2.8033731505274773E-002
  -3.6000000000000004E-002    -2.7840977534651756E-002
  -3.5400000000000001E-002    -2.7575746178627014E-002
  -3.4799999999999998E-002    -2.7235522866249084E-002
  -3.4200000000000008E-002    -2.6817969977855682E-002
  -3.3600000000000005E-002    -2.6320939883589745E-002
  -3.3000000000000002E-002    -2.5742493569850922E-002
  -3.2399999999999998E-002    -2.5080919265747070E-002
  -3.1800000000000009E-002    -2.4334745481610298E-002
  -3.1200000000000006E-002    -2.3502772673964500E-002
  -3.0600000000000002E-002    -2.2584067657589912E-002
  -2.9999999999999999E-002    -2.1577995270490646E-002
  -2.9400000000000009E-002    -2.0484231412410736E-002
  -2.8800000000000006E-002    -1.9302768632769585E-002
  -2.8200000000000003E-002    -1.8033934757113457E-002
  -2.7600000000000000E-002    -1.6678404062986374E-002
  -2.7000000000000010E-002    -1.5237205661833286E-002
  -2.6400000000000007E-002    -1.3711729086935520E-002
  -2.5800000000000003E-002    -1.2103733606636524E-002
  -2.5200000000000000E-002    -1.0415352880954742E-002
  -2.4600000000000011E-002    -8.6490986868739128E-003
  -2.4000000000000007E-002    -6.8078567273914814E-003
  -2.3400000000000004E-002    -4.8948908224701881E-003
  -2.2800000000000001E-002    -2.9138394165784121E-003
  -2.2199999999999998E-002    -8.6870766244828701E-004
  -2.1600000000000008E-002     1.2361381668597460E-003
  -2.1000000000000005E-002     3.3959799911826849E-003
  -2.0400000000000001E-002     5.6057600304484367E-003
  -1.9799999999999998E-002     7.8600952401757240E-003
  -1.9200000000000009E-002     1.0153290815651417E-002
  -1.8600000000000005E-002     1.2479360215365887E-002
  -1.8000000000000002E-002     1.4832044951617718E-002
  -1.7399999999999999E-002     1.7204837873578072E-002
  -1.6800000000000009E-002     1.9590998068451881E-002
  -1.6200000000000006E-002     2.1983593702316284E-002
  -1.5600000000000003E-002     2.4375511333346367E-002
  -1.4999999999999999E-002     2.6759495958685875E-002
  -1.4400000000000010E-002     2.9128175228834152E-002
  -1.3800000000000007E-002     3.1474098563194275E-002
  -1.3200000000000003E-002     3.3789753913879395E-002
  -1.2600000000000000E-002     3.6067623645067215E-002
  -1.2000000000000011E-002     3.8300193846225739E-002
  -1.1400000000000007E-002     4.0480017662048340E-002
  -1.0800000000000004E-002     4.2599711567163467E-002
  -1.0200000000000001E-002     4.4652029871940613E-002
  -9.6000000000000113E-003     4.6629875898361206E-002
  -9.0000000000000080E-003     4.8526339232921600E-002
  -8.4000000000000047E-003     5.0334736704826355E-002
  -7.8000000000000014E-003     5.2048649638891220E-002
  -7.2000000000000119E-003     5.3661927580833435E-002
  -6.6000000000000086E-003     5.5168755352497101E-002
  -6.0000000000000053E-003     5.6563664227724075E-002
  -5.4000000000000020E-003     5.7841558009386063E-002
  -4.7999999999999987E-003     5.8997746556997299E-002
  -4.2000000000000093E-003     6.0027968138456345E-002
  -3.6000000000000060E-003     6.0928400605916977E-002
  -3.0000000000000027E-003     6.1695702373981476E-002
  -2.3999999999999994E-003     6.2327016144990921E-002
  -1.8000000000000099E-003     6.2819987535476685E-002
  -1.2000000000000066E-003     6.3172772526741028E-002
  -6.0000000000000331E-004     6.3384048640727997E-002
   0.0000000000000000          6.3453033566474915E-002
   5.9999999999998943E-004     6.3379473984241486E-002
   1.1999999999999927E-003     6.3163645565509796E-002
   1.7999999999999960E-003     6.2806390225887299E-002
   2.3999999999999994E-003     6.2309030443429947E-002
   2.9999999999999888E-003     6.1673451215028763E-002
   3.5999999999999921E-003     6.0902040451765060E-002
   4.1999999999999954E-003     5.9997674077749252E-002
   4.7999999999999987E-003     5.8963727205991745E-002
   5.3999999999999881E-003     5.7804040610790253E-002
   6.0000000000000053E-003     5.6522905826568604E-002
   6.5999999999999948E-003     5.5125031620264053E-002
   7.1999999999999842E-003     5.3615529090166092E-002
   7.8000000000000014E-003     5.1999896764755249E-002
   8.3999999999999908E-003     5.0283964723348618E-002
   8.9999999999999802E-003     4.8473883420228958E-002
   9.5999999999999974E-003     4.6576090157032013E-002
   1.0199999999999987E-002     4.4597275555133820E-002
   1.0800000000000004E-002     4.2544357478618622E-002
   1.1399999999999993E-002     4.0424432605504990E-002
   1.1999999999999983E-002     3.8244746625423431E-002
   1.2600000000000000E-002     3.6012671887874603E-002
   1.3199999999999990E-002     3.3735662698745728E-002
   1.3799999999999979E-002     3.1421206891536713E-002
   1.4399999999999996E-002     2.9076829552650452E-002
   1.4999999999999986E-002     2.6710016652941704E-002
   1.5600000000000003E-002     2.4328203871846199E-002
   1.6199999999999992E-002     2.1938748657703400E-002
   1.6799999999999982E-002     1.9548881798982620E-002
   1.7399999999999999E-002     1.7165694385766983E-002
   1.7999999999999988E-002     1.4796099625527859E-002
   1.8600000000000005E-002     1.2446805834770203E-002
   1.9199999999999995E-002     1.0124295949935913E-002
   1.9799999999999984E-002     7.8348023816943169E-003
   2.0400000000000001E-002     5.5842814035713673E-003
   2.0999999999999991E-002     3.3783961553126574E-003
   2.1599999999999980E-002     1.2225019745528698E-003
   2.2199999999999998E-002    -8.7837409228086472E-004
   2.2799999999999987E-002    -2.9195440001785755E-003
   2.3400000000000004E-002    -4.8966715112328529E-003
   2.3999999999999994E-002    -6.8057794123888016E-003
   2.4599999999999983E-002    -8.6432583630084991E-003
   2.5200000000000000E-002    -1.0405872017145157E-002
   2.5799999999999990E-002    -1.2090758420526981E-002
   2.6399999999999979E-002    -1.3695430941879749E-002
   2.6999999999999996E-002    -1.5217780135571957E-002
   2.7599999999999986E-002    -1.6656065359711647E-002
   2.8200000000000003E-002    -1.8008913844823837E-002
   2.8799999999999992E-002    -1.9275316968560219E-002
   2.9399999999999982E-002    -2.0454613491892815E-002
   2.9999999999999999E-002    -2.1546484902501106E-002
   3.0599999999999988E-002    -2.2550944238901138E-002
   3.1199999999999978E-002    -2.3468328639864922E-002
   3.1799999999999995E-002    -2.4299271404743195E-002
   3.2399999999999984E-002    -2.5044703856110573E-002
   3.3000000000000002E-002    -2.5705827400088310E-002
   3.3599999999999991E-002    -2.6284106075763702E-002
   3.4199999999999980E-002    -2.6781246066093445E-002
   3.4799999999999998E-002    -2.7199173346161842E-002
   3.5399999999999987E-002    -2.7540026232600212E-002
   3.6000000000000004E-002    -2.7806129306554794E-002
   3.6599999999999994E-002    -2.7999971061944962E-002
   3.7199999999999983E-002    -2.8124202042818069E-002
   3.7800000000000000E-002    -2.8181599453091621E-002
   3.8399999999999990E-002    -2.8175059705972672E-002
   3.8999999999999979E-002    -2.8107572346925735E-002
   3.9599999999999996E-002    -2.7982208877801895E-002
   4.0199999999999986E-002    -2.7802102267742157E-002
   4.0800000000000003E-002    -2.7570432052016258E-002
   4.1399999999999992E-002    -2.7290413156151772E-002
   4.1999999999999982E-002    -2.6965262368321419E-002
   4.2599999999999999E-002    -2.6598209515213966E-002
   4.3199999999999988E-002    -2.6192463934421539E-002
   4.3799999999999978E-002    -2.5751210749149323E-002
   4.4399999999999995E-002    -2.5277595967054367E-002
   4.4999999999999984E-002    -2.4774709716439247E-002
   4.5600000000000002E-002    -2.4245588108897209E-002
   4.6199999999999991E-002    -2.3693192750215530E-002
   4.6799999999999981E-002    -2.3120401427149773E-002
   4.7399999999999998E-002    -2.2530011832714081E-002
   4.7999999999999987E-002    -2.1924722939729691E-002
   4.8599999999999977E-002    -2.1307131275534630E-002
   4.9199999999999994E-002    -2.0679729059338570E-002
   4.9799999999999983E-002    -2.0044898614287376E-002
   5.0400000000000000E-002    -1.9404903054237366E-002
   5.0999999999999990E-002    -1.8761893734335899E-002
   5.1599999999999979E-002    -1.8117899075150490E-002
   5.2199999999999996E-002    -1.7474830150604248E-002
   5.2799999999999986E-002    -1.6834473237395287E-002
   5.3400000000000003E-002    -1.6198493540287018E-002
   5.3999999999999992E-002    -1.5568433329463005E-002
   5.4599999999999982E-002    -1.4945719391107559E-002
   5.5199999999999999E-002    -1.4331655576825142E-002
   5.5799999999999988E-002    -1.3727430254220963E-002
   5.6399999999999978E-002    -1.3134119100868702E-002
   5.6999999999999995E-002    -1.2552686035633087E-002
   5.7599999999999985E-002    -1.1983987875282764E-002
   5.8200000000000002E-002    -1.1428778059780598E-002
   5.8799999999999991E-002    -1.0887706652283669E-002
   5.9399999999999981E-002    -1.0361332446336746E-002
   5.9999999999999998E-002    -9.8501183092594147E-003
   6.0599999999999987E-002    -9.3544414266943932E-003
   6.1199999999999977E-002    -8.8745970278978348E-003
   6.1799999999999994E-002    -8.4108030423521996E-003
   6.2399999999999983E-002    -7.9632010310888290E-003
   6.3000000000000000E-002    -7.5318673625588417E-003
   6.3599999999999990E-002    -7.1168132126331329E-003
   6.4199999999999979E-002    -6.7179906181991100E-003
   6.4799999999999996E-002    -6.3352966681122780E-003
   6.5399999999999986E-002    -5.9685818850994110E-003
   6.5999999999999975E-002    -5.6176478974521160E-003
   6.6599999999999993E-002    -5.2822586148977280E-003
   6.7199999999999982E-002    -4.9621379002928734E-003
   6.7799999999999999E-002    -4.6569812111556530E-003
   6.8399999999999989E-002    -4.3664514087140560E-003
   6.8999999999999978E-002    -4.0901894681155682E-003
   6.9599999999999995E-002    -3.8278130814433098E-003
   7.0199999999999985E-002    -3.5789234098047018E-003
   7.0799999999999974E-002    -3.3431069459766150E-003
   7.1399999999999991E-002    -3.1199378427118063E-003
   7.1999999999999981E-002    -2.9089818708598614E-003
   7.2599999999999998E-002    -2.7097982820123434E-003
   7.3199999999999987E-002    -2.5219428353011608E-003
   7.3799999999999977E-002    -2.3449694272130728E-003
   7.4399999999999994E-002    -2.1784324198961258E-003
   7.4999999999999983E-002    -2.0218889694660902E-003
   7.5600000000000001E-002    -1.8748992588371038E-003
   7.6199999999999990E-002    -1.7370299901813269E-003
   7.6799999999999979E-002    -1.6078541520982981E-003
   7.7399999999999997E-002    -1.4869528822600842E-003
   7.7999999999999986E-002    -1.3739159330725670E-003
   7.8599999999999975E-002    -1.2683435343205929E-003
   7.9199999999999993E-002    -1.1698463931679726E-003
   7.9799999999999982E-002    -1.0780462762340903E-003
   8.0399999999999999E-002    -9.9257694091647863E-004
   8.0999999999999989E-002    -9.1308454284444451E-004
   8.1599999999999978E-002    -8.3922740304842591E-004
   8.2199999999999995E-002    -7.7067670645192266E-004
   8.2799999999999985E-002    -7.0711667649447918E-004
   8.3399999999999974E-002    -6.4824422588571906E-004
   8.3999999999999991E-002    -5.9376918943598866E-004
   8.4599999999999981E-002    -5.4341438226401806E-004
   8.5199999999999998E-002    -4.9691548338159919E-004
   8.5799999999999987E-002    -4.5402042451314628E-004
   8.6399999999999977E-002    -4.1448962292633951E-004
   8.6999999999999994E-002    -3.7809571949765086E-004
   8.7599999999999983E-002    -3.4462285111658275E-004
   8.8199999999999973E-002    -3.1386688351631165E-004
   8.8799999999999990E-002    -2.8563477098941803E-004
   8.9399999999999979E-002    -2.5974429445341229E-004
   8.9999999999999997E-002    -2.3602362489327788E-004
   9.0599999999999986E-002    -2.1431104687508196E-004
   9.1199999999999976E-002    -1.9445459474809468E-004
   9.1799999999999993E-002    -1.7631167429499328E-004
   9.2399999999999982E-002    -1.5974850975908339E-004
   9.2999999999999999E-002    -1.4464004198089242E-004
   9.3599999999999989E-002    -1.3086938997730613E-004
   9.4199999999999978E-002    -1.1832753079943359E-004
   9.4799999999999995E-002    -1.0691298666642979E-004
   9.5399999999999985E-002    -9.6531395683996379E-005
   9.5999999999999974E-002    -8.7095191702246666E-005
   9.6599999999999991E-002    -7.8523320553358644E-005
   9.7199999999999981E-002    -7.0740905357524753E-005
   9.7799999999999998E-002    -6.3678875449113548E-005
   9.8399999999999987E-002    -5.7273675338365138E-005
   9.8999999999999977E-002    -5.1466893637552857E-005
   9.9599999999999994E-002    -4.6205044782254845E-005
  0.10019999999999998         -4.1439234337303787E-005
  0.10079999999999997         -3.7124806112842634E-005
  0.10139999999999999         -3.3221112971659750E-005
  0.10199999999999998         -2.9691156669287011E-005
  0.10260000000000000         -2.6501360480324365E-005
  0.10319999999999999         -2.3621258151251823E-005
  0.10379999999999998         -2.1023233784944750E-005
  0.10439999999999999         -1.8682254449231550E-005
  0.10499999999999998         -1.6575580957578495E-005
  0.10559999999999997         -1.4682655091746710E-005
  0.10619999999999999         -1.2984747627342585E-005
  0.10679999999999998         -1.1464801900729071E-005
  0.10740000000000000         -1.0107271918968763E-005
  0.10799999999999998         -8.8979113570530899E-006
  0.10859999999999997         -7.8236389526864514E-006
  0.10919999999999999         -6.8723870754183736E-006
  0.10979999999999998         -6.0330057749524713E-006
  0.11040000000000000         -5.2951445468352176E-006
  0.11099999999999999         -4.6491600187437143E-006
  0.11159999999999998         -4.0860668377717957E-006
  0.11219999999999999         -3.5974737784272293E-006
  0.11279999999999998         -3.1755330383020919E-006
  0.11339999999999997         -2.8129084057582077E-006
  0.11399999999999999         -2.5027618448802968E-006
  0.11459999999999998         -2.2387143872037996E-006
  0.11520000000000000         -2.0148420389887178E-006
  0.11579999999999999         -1.8256772591485060E-006
  0.11639999999999998         -1.6661966810715967E-006
  0.11699999999999999         -1.5317372117351624E-006
  0.11759999999999998         -1.4181215419739601E-006
  0.11819999999999997         -1.3215230865171179E-006
  0.11879999999999999         -1.2385493164401851E-006
  0.11939999999999998         -1.1661609278235119E-006
  0.12000000000000000         -1.1016677490260918E-006
  0.12059999999999998         -1.0427100960441749E-006
  0.12119999999999997         -9.8726718533725943E-007
  0.12179999999999999         -9.3366418241203064E-007
  0.12239999999999998         -8.8049341684381943E-007
  0.12299999999999997         -8.2661466649369686E-007
  0.12359999999999999         -7.7113094221203937E-007
  0.12419999999999998         -7.1343691843139823E-007
  0.12479999999999999         -6.5310086938552558E-007
  0.12539999999999998         -5.8998836038881564E-007
  0.12599999999999997         -5.2411587603273802E-007
  0.12659999999999999         -4.5573960960609838E-007
  0.12719999999999998         -3.8517706002494378E-007
  0.12779999999999997         -3.1307948233916250E-007
  0.12839999999999999         -2.4002048348847893E-007
  0.12899999999999998         -1.6693229554221034E-007
  0.12959999999999999         -9.4659320382106671E-008
  0.13019999999999998         -2.4264265263695961E-008
  0.13079999999999997          4.3226048518363314E-008
  0.13139999999999996          1.0679445239247798E-007
  0.13200000000000001          1.6529148183508369E-007
  0.13260000000000000          2.1776178016352787E-007
  0.13319999999999999          2.6318727464058611E-007
  0.13379999999999997          3.0078436452640744E-007
  0.13439999999999996          3.2981415643007495E-007
  0.13500000000000001          3.4969241369253723E-007
  0.13560000000000000          3.6013949511470855E-007
  0.13619999999999999          3.6100158240515157E-007
  0.13679999999999998          3.5237229667473002E-007
  0.13739999999999997          3.3452403158662491E-007
  0.13799999999999996          3.0809025020062109E-007
  0.13860000000000000          2.7379519451642409E-007
  0.13919999999999999          2.3265587856258207E-007
  0.13979999999999998          1.8589365424759308E-007
  0.14039999999999997          1.3472902082867222E-007
  0.14099999999999996          8.0692977633134433E-008
  0.14160000000000000          2.5173035211878414E-008
  0.14219999999999999         -3.0138469497842379E-008
  0.14279999999999998         -8.3777315751376591E-008
  0.14339999999999997         -1.3425695044588792E-007
  0.14399999999999996         -1.8024952908035630E-007
  0.14460000000000001         -2.2057682258491695E-007
  0.14520000000000000         -2.5422639282624004E-007
  0.14579999999999999         -2.8032397381139162E-007
  0.14639999999999997         -2.9830991365997761E-007
  0.14699999999999996         -3.0785986382397823E-007
  0.14759999999999995         -3.0888466540091031E-007
  0.14820000000000000         -3.0156087404975551E-007
  0.14879999999999999         -2.8629503390220634E-007
  0.14939999999999998         -2.6363898086856352E-007
  0.14999999999999997         -2.3443040220172406E-007
  0.15059999999999996         -1.9963195541095047E-007
  0.15120000000000000         -1.6035238559197751E-007
  0.15179999999999999         -1.1777900965626031E-007
  0.15239999999999998         -7.3119053922710009E-008
  0.15299999999999997         -2.7652463430172247E-008
  0.15359999999999996          1.7404000018927945E-008
  0.15420000000000000          6.0862419104523724E-008
  0.15479999999999999          1.0163509500671353E-007
  0.15539999999999998          1.3873851401058346E-007
  0.15599999999999997          1.7134007634922455E-007
  0.15659999999999996          1.9874593704116705E-007
  0.15720000000000001          2.2043359138024243E-007
  0.15780000000000000          2.3605029753070994E-007
  0.15839999999999999          2.4541151333323796E-007
  0.15899999999999997          2.4850214686011896E-007
  0.15959999999999996          2.4545659016439458E-007
  0.16019999999999995          2.3657179326619371E-007
  0.16080000000000000          2.2224408269266860E-007
  0.16139999999999999          2.0300284120366996E-007
  0.16199999999999998          1.7945329489066353E-007
  0.16259999999999997          1.5224708249661489E-007
  0.16319999999999996          1.2210777811105800E-007
  0.16380000000000000          8.9767475230928540E-008
  0.16439999999999999          5.5977118051941943E-008
  0.16499999999999998          2.1418767204295364E-008
  0.16559999999999997         -1.3190533998397314E-008
  0.16619999999999996         -4.7188134288944639E-008
  0.16680000000000000         -7.9972949151851935E-008
  0.16739999999999999         -1.1099861296770541E-007
  0.16799999999999998         -1.3975859758375009E-007
  0.16859999999999997         -1.6583857131990953E-007
  0.16919999999999996         -1.8884460928347835E-007
  0.16980000000000001         -2.0846880488534225E-007
  0.17040000000000000         -2.2447451897278370E-007
  0.17099999999999999         -2.3666325432714075E-007
  0.17159999999999997         -2.4488585381732264E-007
  0.17219999999999996         -2.4905486384341202E-007
  0.17279999999999995         -2.4914422169786121E-007
  0.17340000000000000         -2.4517268570889428E-007
  0.17399999999999999         -2.3718494901459053E-007
  0.17459999999999998         -2.2533480148467788E-007
  0.17519999999999997         -2.0981329384994751E-007
  0.17579999999999996         -1.9088390956767398E-007
  0.17640000000000000         -1.6886406228877604E-007
  0.17699999999999999         -1.4413356552722689E-007
  0.17759999999999998         -1.1715061276618144E-007
  0.17819999999999997         -8.8430759603852493E-008
  0.17879999999999996         -5.8526165247485551E-008
  0.17940000000000000         -2.8065317181358296E-008
  0.17999999999999999          2.3334976173572386E-009
  0.18059999999999998          3.2015254447514963E-008
  0.18119999999999997          6.0356910580594558E-008
  0.18179999999999996          8.6755619577161269E-008
  0.18239999999999995          1.1066033067663739E-007
  0.18300000000000000          1.3156335398889496E-007
  0.18359999999999999          1.4907573131495155E-007
  0.18419999999999997          1.6290672988361621E-007
  0.18479999999999996          1.7285388764776144E-007
  0.18539999999999995          1.7885382419535745E-007
  0.18600000000000000          1.8092912057454669E-007
  0.18659999999999999          1.7922832284966717E-007
  0.18719999999999998          1.7399970886344818E-007
  0.18779999999999997          1.6557901005853637E-007
  0.18839999999999996          1.5436802414114936E-007
  0.18900000000000000          1.4084983490647573E-007
  0.18959999999999999          1.2548791517019708E-007
  0.19019999999999998          1.0881626621994656E-007
  0.19079999999999997          9.1326029405536246E-008
  0.19139999999999996          7.3544065060104913E-008
  0.19200000000000000          5.5898553341648949E-008
  0.19259999999999999          3.8792574486024023E-008
  0.19319999999999998          2.2575916247546957E-008
  0.19379999999999997          7.5327752924181368E-009
  0.19439999999999996         -6.1181117949615782E-009
  0.19499999999999995         -1.8233707876902372E-008
  0.19560000000000000         -2.8733415646797766E-008
  0.19619999999999999         -3.7585383694249686E-008
  0.19679999999999997         -4.4812122013127009E-008
  0.19739999999999996         -5.0480334579106056E-008
  0.19799999999999995         -5.4661835946490100E-008
  0.19860000000000000         -5.7472114178835909E-008
  0.19919999999999999         -5.9023559373372336E-008
  0.19979999999999998         -5.9413650888018310E-008
  0.20039999999999997         -5.8714711315133172E-008
  0.20099999999999996         -5.7001578568360856E-008
  0.20160000000000000         -5.4303932017774059E-008
  0.20219999999999999         -5.0632930737037896E-008
  0.20279999999999998         -4.5966157102839134E-008
  0.20339999999999997         -4.0265625500524038E-008
  0.20399999999999996         -3.3488706918660682E-008
  0.20459999999999995         -2.5585118024196163E-008
  0.20519999999999999         -1.6525282475754466E-008
  0.20579999999999998         -6.3148899442921902E-009
  0.20639999999999997          4.9991912831615082E-009