  -6.6666666666666666E-002     0.0000000000000000     
  -6.6266666666666668E-002     0.0000000000000000     
  -6.5866666666666671E-002     0.0000000000000000     
  -6.5466666666666659E-002     0.0000000000000000     
  -6.5066666666666662E-002     0.0000000000000000     
  -6.4666666666666664E-002     0.0000000000000000     
  -6.4266666666666666E-002     0.0000000000000000     
  -6.3866666666666669E-002     0.0000000000000000     
  -6.3466666666666671E-002     0.0000000000000000     
  -6.3066666666666660E-002     0.0000000000000000     
  -6.2666666666666662E-002     0.0000000000000000     
  -6.2266666666666665E-002     0.0000000000000000     
  -6.1866666666666667E-002     0.0000000000000000     
  -6.1466666666666663E-002     0.0000000000000000     
  -6.1066666666666665E-002     0.0000000000000000     
  -6.0666666666666667E-002     0.0000000000000000     
  -6.0266666666666663E-002     0.0000000000000000     
  -5.9866666666666665E-002     0.0000000000000000     
  -5.9466666666666668E-002     0.0000000000000000     
  -5.9066666666666663E-002     0.0000000000000000     
  -5.8666666666666666E-002     0.0000000000000000     
  -5.8266666666666661E-002     0.0000000000000000     
  -5.7866666666666663E-002     0.0000000000000000     
  -5.7466666666666666E-002     0.0000000000000000     
  -5.7066666666666668E-002     0.0000000000000000     
  -5.6666666666666664E-002     0.0000000000000000     
  -5.6266666666666666E-002     0.0000000000000000     
  -5.5866666666666662E-002     0.0000000000000000     
  -5.5466666666666664E-002     0.0000000000000000     
  -5.5066666666666667E-002     0.0000000000000000     
  -5.4666666666666669E-002     0.0000000000000000     
  -5.4266666666666664E-002     0.0000000000000000     
  -5.3866666666666667E-002     0.0000000000000000     
  -5.3466666666666662E-002     0.0000000000000000     
  -5.3066666666666665E-002     0.0000000000000000     
  -5.2666666666666667E-002     0.0000000000000000     
  -5.2266666666666663E-002     0.0000000000000000     
  -5.1866666666666665E-002     0.0000000000000000     
  -5.1466666666666668E-002     0.0000000000000000     
  -5.1066666666666663E-002     0.0000000000000000     
  -5.0666666666666665E-002     0.0000000000000000     
  -5.0266666666666668E-002     0.0000000000000000     
  -4.9866666666666663E-002     0.0000000000000000     
  -4.9466666666666666E-002     0.0000000000000000     
  -4.9066666666666661E-002     0.0000000000000000     
  -4.8666666666666664E-002     0.0000000000000000     
  -4.8266666666666666E-002     0.0000000000000000     
  -4.7866666666666668E-002     0.0000000000000000     
  -4.7466666666666664E-002     0.0000000000000000     
  -4.7066666666666666E-002     0.0000000000000000     
  -4.6666666666666662E-002     0.0000000000000000     
  -4.6266666666666664E-002     0.0000000000000000     
  -4.5866666666666667E-002     0.0000000000000000     
  -4.5466666666666669E-002     0.0000000000000000     
  -4.5066666666666665E-002     0.0000000000000000     
  -4.4666666666666660E-002     0.0000000000000000     
  -4.4266666666666662E-002     0.0000000000000000     
  -4.3866666666666665E-002     0.0000000000000000     
  -4.3466666666666667E-002     0.0000000000000000     
  -4.3066666666666670E-002     0.0000000000000000     
  -4.2666666666666665E-002     0.0000000000000000     
  -4.2266666666666661E-002     0.0000000000000000     
  -4.1866666666666663E-002     0.0000000000000000     
  -4.1466666666666666E-002     0.0000000000000000     
  -4.1066666666666668E-002     0.0000000000000000     
  -4.0666666666666663E-002     0.0000000000000000     
  -4.0266666666666666E-002     0.0000000000000000     
  -3.9866666666666661E-002     0.0000000000000000     
  -3.9466666666666664E-002     0.0000000000000000     
  -3.9066666666666666E-002     0.0000000000000000     
  -3.8666666666666669E-002     0.0000000000000000     
  -3.8266666666666664E-002     0.0000000000000000     
  -3.7866666666666660E-002     0.0000000000000000     
  -3.7466666666666662E-002     0.0000000000000000     
  -3.7066666666666664E-002     0.0000000000000000     
  -3.6666666666666667E-002     0.0000000000000000     
  -3.6266666666666669E-002     0.0000000000000000     
  -3.5866666666666665E-002     0.0000000000000000     
  -3.5466666666666660E-002     0.0000000000000000     
  -3.5066666666666663E-002     0.0000000000000000     
  -3.4666666666666665E-002     0.0000000000000000     
  -3.4266666666666667E-002     0.0000000000000000     
  -3.3866666666666663E-002     0.0000000000000000     
  -3.3466666666666665E-002     0.0000000000000000     
  -3.3066666666666661E-002     0.0000000000000000     
  -3.2666666666666663E-002     0.0000000000000000     
  -3.2266666666666666E-002     0.0000000000000000     
  -3.1866666666666661E-002     0.0000000000000000     
  -3.1466666666666664E-002     0.0000000000000000     
  -3.1066666666666666E-002     0.0000000000000000     
  -3.0666666666666662E-002     0.0000000000000000     
  -3.0266666666666664E-002     0.0000000000000000     
  -2.9866666666666666E-002     0.0000000000000000     
  -2.9466666666666662E-002     0.0000000000000000     
  -2.9066666666666664E-002     0.0000000000000000     
  -2.8666666666666667E-002     0.0000000000000000     
  -2.8266666666666662E-002     0.0000000000000000     
  -2.7866666666666665E-002     0.0000000000000000     
  -2.7466666666666667E-002     0.0000000000000000     
  -2.7066666666666662E-002     0.0000000000000000     
  -2.6666666666666665E-002     0.0000000000000000     
  -2.6266666666666660E-002     0.0000000000000000     
  -2.5866666666666663E-002     0.0000000000000000     
  -2.5466666666666665E-002     0.0000000000000000     
  -2.5066666666666661E-002     0.0000000000000000     
  -2.4666666666666663E-002     0.0000000000000000     
  -2.4266666666666666E-002     0.0000000000000000     
  -2.3866666666666661E-002     0.0000000000000000     
  -2.3466666666666663E-002     0.0000000000000000     
  -2.3066666666666666E-002     0.0000000000000000     
  -2.2666666666666661E-002     0.0000000000000000     
  -2.2266666666666664E-002     0.0000000000000000     
  -2.1866666666666666E-002     0.0000000000000000     
  -2.1466666666666662E-002     0.0000000000000000     
  -2.1066666666666664E-002     0.0000000000000000     
  -2.0666666666666667E-002     0.0000000000000000     
  -2.0266666666666662E-002     0.0000000000000000     
  -1.9866666666666664E-002     0.0000000000000000     
  -1.9466666666666667E-002     0.0000000000000000     
  -1.9066666666666662E-002     0.0000000000000000     
  -1.8666666666666665E-002     0.0000000000000000     
  -1.8266666666666660E-002     0.0000000000000000     
  -1.7866666666666663E-002     0.0000000000000000     
  -1.7466666666666665E-002     0.0000000000000000     
  -1.7066666666666661E-002     0.0000000000000000     
  -1.6666666666666663E-002     0.0000000000000000     
  -1.6266666666666665E-002     0.0000000000000000     
  -1.5866666666666661E-002     0.0000000000000000     
  -1.5466666666666663E-002     0.0000000000000000     
  -1.5066666666666666E-002     0.0000000000000000     
  -1.4666666666666661E-002     0.0000000000000000     
  -1.4266666666666664E-002     0.0000000000000000     
  -1.3866666666666666E-002     0.0000000000000000     
  -1.3466666666666662E-002     0.0000000000000000     
  -1.3066666666666664E-002     0.0000000000000000     
  -1.2666666666666666E-002     0.0000000000000000     
  -1.2266666666666662E-002     0.0000000000000000     
  -1.1866666666666664E-002     0.0000000000000000     
  -1.1466666666666660E-002     0.0000000000000000     
  -1.1066666666666662E-002     0.0000000000000000     
  -1.0666666666666665E-002     0.0000000000000000     
  -1.0266666666666660E-002     0.0000000000000000     
  -9.8666666666666625E-003     0.0000000000000000     
  -9.4666666666666649E-003     0.0000000000000000     
  -9.0666666666666604E-003     4.7083628401313854E-043
  -8.6666666666666628E-003     1.4139101505037404E-042
  -8.2666666666666652E-003     2.3583853154586671E-042
  -7.8666666666666607E-003     3.3028604804135938E-042
  -7.4666666666666631E-003     3.7750980628910572E-042
  -7.0666666666666655E-003     3.3028604804135938E-042
  -6.6666666666666610E-003    -2.8025969286496341E-045
  -6.2666666666666634E-003    -6.6113261546844869E-042
  -5.8666666666666659E-003    -1.5108800042350178E-041
  -5.4666666666666613E-003    -2.3135437646002730E-041
  -5.0666666666666638E-003    -2.5496625558390047E-041
  -4.6666666666666662E-003    -1.7471389253201819E-041
  -4.2666666666666617E-003     6.6043196623628629E-042
  -3.8666666666666571E-003     4.6730501188304000E-041
  -3.4666666666666596E-003     9.6770869349343217E-041
  -3.0666666666666620E-003     1.4114718911758152E-040
  -2.6666666666666644E-003     1.5625318656300305E-040
  -2.2666666666666668E-003     1.1187686679476475E-040
  -1.8666666666666692E-003    -1.7474191850130469E-041
  -1.4666666666666578E-003    -2.3746403776448350E-040
  -1.0666666666666602E-003    -5.1882515122240622E-040
  -6.6666666666666263E-004    -7.8130236657508771E-040
  -2.6666666666666505E-004    -8.9271400227969661E-040
   1.3333333333333253E-004    -6.9255112833707542E-040
   5.3333333333334398E-004    -4.0133188018262761E-041
   9.3333333333334156E-004     1.1089147371465153E-039
   1.3333333333333391E-003     2.6162718770422205E-039
   1.7333333333333367E-003     4.0905835965522179E-039
   2.1333333333333343E-003     4.8780152426102623E-039
   2.5333333333333319E-003     4.1566730360251692E-039
   2.9333333333333433E-003     1.1665067027318010E-039
   3.3333333333333409E-003    -4.4238880414857329E-039
   3.7333333333333385E-003    -1.2088610889458650E-038
   4.1333333333333361E-003    -2.0080015645822684E-038
   4.5333333333333337E-003    -2.5325790460007280E-038
   4.9333333333333312E-003    -2.3801438372336243E-038
   5.3333333333333427E-003    -1.1542886412915065E-038
   5.7333333333333403E-003     1.3705003062863469E-038
   6.1333333333333379E-003     5.0454227649492909E-038
   6.5333333333333354E-003     9.1625912354472935E-038
   6.9333333333333330E-003     1.2374589841875909E-037
   7.3333333333333445E-003     1.2816977524985711E-037
   7.7333333333333421E-003     8.5123932321556642E-038
   8.1333333333333396E-003    -1.9262359393187617E-038
   8.5333333333333372E-003    -1.8381880127799940E-037
   8.9333333333333348E-003    -3.8334611349952915E-037
   9.3333333333333324E-003    -5.6334243040576789E-037
   9.7333333333333438E-003    -6.4272583146434077E-037
   1.0133333333333341E-002    -5.2835355478508182E-037
   1.0533333333333339E-002    -1.4291134541145247E-037
   1.0933333333333337E-002     5.3636880263481634E-037
   1.1333333333333334E-002     1.4362812414945864E-036
   1.1733333333333332E-002     2.3573675019372833E-036
   1.2133333333333343E-002     2.9725437159098965E-036
   1.2533333333333341E-002     2.8719364949391896E-036
   1.2933333333333338E-002     1.6641619672173682E-036
   1.3333333333333336E-002    -8.7054857706186267E-037
   1.3733333333333334E-002    -4.6013705410508501E-036
   1.4133333333333345E-002    -8.8919848298641463E-036
   1.4533333333333343E-002    -1.2538824039764566E-035
   1.4933333333333340E-002    -1.3876488397364846E-035
   1.5333333333333338E-002    -1.1105607000806337E-035
   1.5733333333333335E-002    -2.8500757007971122E-036
   1.6133333333333333E-002     1.1126256355610424E-035
   1.6533333333333344E-002     2.9206658082570065E-035
   1.6933333333333342E-002     4.7461499899552183E-035
   1.7333333333333339E-002     5.9735190557119746E-035
   1.7733333333333337E-002     5.8541432421999038E-035
   1.8133333333333335E-002     3.6888849438726542E-035
   1.8533333333333332E-002    -9.0931978368759325E-036
   1.8933333333333344E-002    -7.7196252263060267E-035
   1.9333333333333341E-002    -1.5666087571953398E-034
   1.9733333333333339E-002    -2.2726488908244814E-034
   2.0133333333333336E-002    -2.6106999439568550E-034
   2.0533333333333334E-002    -2.2759985905468441E-034
   2.0933333333333332E-002    -1.0248067657176688E-034
   2.1333333333333343E-002     1.2153822950179196E-034
   2.1733333333333341E-002     4.2357047120660276E-034
   2.2133333333333338E-002     7.4713452073780127E-034
   2.2533333333333336E-002     1.0003786614928874E-033
   2.2933333333333333E-002     1.0676503664805237E-033
   2.3333333333333345E-002     8.3422060645873773E-034
   2.3733333333333342E-002     2.2268553502540395E-034
   2.4133333333333340E-002    -7.6478769082226729E-034
   2.4533333333333338E-002    -2.0087508682423586E-033
   2.4933333333333335E-002    -3.2530806988808608E-033
   2.5333333333333333E-002    -4.1183789882524397E-033
   2.5733333333333344E-002    -4.1592134579480982E-033
   2.6133333333333342E-002    -2.9678927287309194E-033
   2.6533333333333339E-002    -3.1460648411257017E-034
   2.6933333333333337E-002     3.7017161993958487E-033
   2.7333333333333334E-002     8.5320428921154073E-033
   2.7733333333333332E-002     1.3134464005413571E-032
   2.8133333333333344E-002     1.6057274872751525E-032
   2.8533333333333341E-002     1.5678659897295175E-032
   2.8933333333333339E-002     1.0601165680848060E-032
   2.9333333333333336E-002     1.5350422568953236E-034
   2.9733333333333334E-002    -1.5098782656562786E-032
   3.0133333333333345E-002    -3.2975990209352025E-032
   3.0533333333333343E-002    -4.9603516493470642E-032
   3.0933333333333340E-002    -5.9774258020033829E-032
   3.1333333333333338E-002    -5.7835903100358401E-032
   3.1733333333333336E-002    -3.9071204659538029E-032
   3.2133333333333333E-002    -1.3898769697634254E-033
   3.2533333333333345E-002     5.3007642338960413E-032
   3.2933333333333342E-002     1.1646039834090944E-031
   3.3333333333333340E-002     1.7568468369649580E-031
   3.3733333333333337E-002     2.1305971465998656E-031
   3.4133333333333335E-002     2.0958161495499955E-031
   3.4533333333333333E-002     1.4934507614908959E-031
   3.4933333333333344E-002     2.4954416759340735E-032
   3.5333333333333342E-002    -1.5720246830312153E-031
   3.5733333333333339E-002    -3.7324254309512643E-031
   3.6133333333333337E-002    -5.8118203946180128E-031
   3.6533333333333334E-002    -7.2474046255032396E-031
   3.6933333333333346E-002    -7.4220116159789016E-031
   3.7333333333333343E-002    -5.7992200355726785E-031
   3.7733333333333341E-002    -2.0877658940378241E-031
   3.8133333333333339E-002     3.5952786242498667E-031
   3.8533333333333336E-002     1.0603343666168622E-030
   3.8933333333333334E-002     1.7725647951077691E-030
   3.9333333333333345E-002     2.3277330975660991E-030
   3.9733333333333343E-002     2.5335480524628718E-030
   4.0133333333333340E-002     2.2114133236143786E-030
   4.0533333333333338E-002     1.2435911147236149E-030
   4.0933333333333335E-002    -3.7785485378933486E-031
   4.1333333333333333E-002    -2.5111796174808485E-030
   4.1733333333333344E-002    -4.8463299903610883E-030
   4.2133333333333342E-002    -6.9187235215952430E-030
   4.2533333333333340E-002    -8.1626839296241122E-030
   4.2933333333333337E-002    -8.0050962165573957E-030
   4.3333333333333335E-002    -5.9910139759714871E-030
   4.3733333333333346E-002    -1.9234277400923015E-030
   4.4133333333333344E-002     4.0090281854568148E-030
   4.4533333333333341E-002     1.1147797854836722E-029
   4.4933333333333339E-002     1.8354775913061510E-029
   4.5333333333333337E-002     2.4101806538525477E-029
   4.5733333333333334E-002     2.6669994998913860E-029
   4.6133333333333346E-002     2.4449846153600555E-029
   4.6533333333333343E-002     1.6310001044777891E-029
   4.6933333333333341E-002     1.9795072841858505E-030
   4.7333333333333338E-002    -1.7629442107982665E-029
   4.7733333333333336E-002    -4.0239652015766684E-029
   4.8133333333333334E-002    -6.2244027557622780E-029
   4.8533333333333345E-002    -7.9012449582046212E-029
   4.8933333333333343E-002    -8.5488316797675378E-029
   4.9333333333333340E-002    -7.7042680657299862E-029
   4.9733333333333338E-002    -5.0497672493245657E-029
   5.0133333333333335E-002    -5.1757336001168743E-030
   5.0533333333333347E-002     5.6211972842084424E-029
   5.0933333333333344E-002     1.2704560582195674E-028
   5.1333333333333342E-002     1.9684367830779420E-028
   5.1733333333333339E-002     2.5202899808183655E-028
   5.2133333333333337E-002     2.7748187155973951E-028
   5.2533333333333335E-002     2.5883070856993173E-028
   5.2933333333333346E-002     1.8529056623921203E-028
   5.3333333333333344E-002     5.2712582207257121E-029
   5.3733333333333341E-002    -1.3362311399040094E-028
   5.4133333333333339E-002    -3.5702901346112731E-028
   5.4533333333333336E-002    -5.8882838044486060E-028
   5.4933333333333334E-002    -7.8968732176014837E-028
   5.5333333333333345E-002    -9.1321020912082642E-028
   5.5733333333333343E-002    -9.1187236188495782E-028
   5.6133333333333341E-002    -7.4499399887770373E-028
   5.6533333333333338E-002    -3.8802748184327179E-028
   5.6933333333333336E-002     1.5801752044499299E-028
   5.7333333333333333E-002     8.5857148030206332E-028
   5.7733333333333345E-002     1.6407347715484741E-027
   5.8133333333333342E-002     2.3935726979036781E-027
   5.8533333333333340E-002     2.9750313629715951E-027
   5.8933333333333351E-002     3.2264010430110950E-027
   5.9333333333333335E-002     2.9942715957090181E-027
   5.9733333333333347E-002     2.1586394817885622E-027
   6.0133333333333330E-002     6.6435155654281861E-028
   6.0533333333333342E-002    -1.4483831924282794E-027
   6.0933333333333353E-002    -4.0198853356566028E-027
   6.1333333333333337E-002    -6.7594301628400596E-027
   6.1733333333333348E-002    -9.2521535861406814E-027
   6.2133333333333332E-002    -1.0989171373398907E-026
   6.2533333333333344E-002    -1.1423212041989636E-026
   6.2933333333333327E-002    -1.0048547958932158E-026
   6.3333333333333339E-002    -6.4995166723812691E-027
   6.3733333333333350E-002    -6.5710871180096154E-028
   6.4133333333333334E-002     7.2515946267804180E-027
   6.4533333333333345E-002     1.6579814742004618E-026
   6.4933333333333329E-002     2.6233581729076392E-026
   6.5333333333333340E-002     3.4709291265533515E-026
   6.5733333333333352E-002     4.0210418951068063E-026
   6.6133333333333336E-002     4.0849057320626870E-026
   6.6533333333333347E-002     3.4925768872770551E-026
   6.6933333333333331E-002     2.1266797914008238E-026
   6.7333333333333342E-002    -4.1806334636508724E-028
   6.7733333333333354E-002    -2.9207994098163861E-026
   6.8133333333333337E-002    -6.2735772024390516E-026
   6.8533333333333349E-002    -9.7110281198807131E-026
   6.8933333333333333E-002    -1.2705761052848610E-025
   6.9333333333333344E-002    -1.4632526696757314E-025
   6.9733333333333328E-002    -1.4836649386363908E-025
   7.0133333333333339E-002    -1.2728274403526519E-025
   7.0533333333333351E-002    -7.8956046460657147E-026
   7.0933333333333334E-002    -2.2530481824764357E-027
   7.1333333333333346E-002     9.9863837166336005E-026
   7.1733333333333330E-002     2.1951760599482194E-025
   7.2133333333333341E-002     3.4360426774663255E-025
   7.2533333333333352E-002     4.5418789877616195E-025
   7.2933333333333336E-002     5.2975648406516275E-025
   7.3333333333333348E-002     5.4740739473090261E-025
   7.3733333333333331E-002     4.8591292615575647E-025
   7.4133333333333343E-002     3.2946797893268517E-025
   7.4533333333333354E-002     7.1763742742772657E-026
   7.4933333333333338E-002    -2.8012364462736621E-025
   7.5333333333333349E-002    -7.0266370113312886E-025
   7.5733333333333333E-002    -1.1543222160243128E-024
   7.6133333333333345E-002    -1.5762140014293068E-024
   7.6533333333333328E-002    -1.8955211314280026E-024
   7.6933333333333340E-002    -2.0319999844880268E-024
   7.7333333333333351E-002    -1.9075453437758339E-024
   7.7733333333333335E-002    -1.4583325442098680E-024
   7.8133333333333346E-002    -6.4854237031243748E-025
   7.8533333333333330E-002     5.1584393592545868E-025
   7.8933333333333341E-002     1.9751453985421643E-024
   7.9333333333333353E-002     3.6082450473154767E-024
   7.9733333333333337E-002     5.2313559420916542E-024
   8.0133333333333348E-002     6.6053875559183708E-024
   8.0533333333333332E-002     7.4534118457396007E-024
   8.0933333333333343E-002     7.4887275707445350E-024
   8.1333333333333355E-002     6.4527090497391806E-024
   8.1733333333333338E-002     4.1599921137974198E-024
   8.2133333333333350E-002     5.4683399146042009E-025
   8.2533333333333334E-002    -4.2831628833863655E-024
   8.2933333333333345E-002    -1.0023087590312691E-023
   8.3333333333333329E-002    -1.6144360280597337E-023
   8.3733333333333340E-002    -2.1903655467051364E-023
   8.4133333333333352E-002    -2.6381548664891536E-023
   8.4533333333333335E-002    -2.8556824722429424E-023
   8.4933333333333347E-002    -2.7416728232324188E-023
   8.5333333333333330E-002    -2.2098538820520784E-023
   8.5733333333333342E-002    -1.2052487489257109E-023
   8.6133333333333353E-002     2.7899337951350751E-024
   8.6533333333333337E-002     2.1863243700598702E-023
   8.6933333333333349E-002     4.3855876366871754E-023
   8.7333333333333332E-002     6.6665372922779354E-023
   8.7733333333333344E-002     8.7446234774820600E-023
   8.8133333333333355E-002     1.0277073507206536E-022
   8.8533333333333339E-002     1.0891379688941312E-022
   8.8933333333333350E-002     1.0226008963089769E-022
   8.9333333333333334E-002     7.9814895351908400E-023
   8.9733333333333345E-002     3.9781614895240586E-023
   9.0133333333333329E-002    -1.7850169436220096E-023
   9.0533333333333341E-002    -9.0779329871560419E-023
   9.0933333333333352E-002    -1.7401619023434722E-022
   9.1333333333333336E-002    -2.5974440586445405E-022
   9.1733333333333347E-002    -3.3750698175267774E-022
   9.2133333333333331E-002    -3.9478451862831806E-022
   9.2533333333333342E-002    -4.1800232327788081E-022
   9.2933333333333354E-002    -3.9396034199809211E-022
   9.3333333333333338E-002    -3.1162353406283904E-022
   9.3733333333333349E-002    -1.6414934522378350E-022
   9.4133333333333333E-002     4.9035051132235302E-023
   9.4533333333333344E-002     3.2035101149077394E-022
   9.4933333333333356E-002     6.3267058592928207E-022
   9.5333333333333339E-002     9.5870990301364920E-022
   9.5733333333333351E-002     1.2615088982027749E-021
   9.6133333333333335E-002     1.4962405821119115E-021
   9.6533333333333346E-002     1.6134956553736123E-021
   9.6933333333333330E-002     1.5640523277021580E-021
   9.7333333333333341E-002     1.3049611239107760E-021
   9.7733333333333353E-002     8.0657420255701062E-022
   9.8133333333333336E-002     5.9930930483779994E-023
   9.8533333333333348E-002    -9.1628640241315431E-022
   9.8933333333333331E-002    -2.0701751851239807E-021
   9.9333333333333343E-002    -3.3134536971337153E-021
   9.9733333333333354E-002    -4.5217541418494992E-021
  0.10013333333333334         -5.5392759603756543E-021
  0.10053333333333335         -6.1884358344386198E-021
  0.10093333333333333         -6.2847417912835265E-021
  0.10133333333333334         -5.6565788954061966E-021
  0.10173333333333336         -4.1689309144400889E-021
  0.10213333333333334         -1.7493644128758694E-021
  0.10253333333333335          1.5861058998733594E-021
  0.10293333333333334          5.7102672792461496E-021
  0.10333333333333335          1.0368501375405497E-020
  0.10373333333333333          1.5172717097705898E-020
  0.10413333333333334          1.9608802712296823E-020
  0.10453333333333335          2.3060376992474854E-020
  0.10493333333333334          2.4850497620029041E-020
  0.10533333333333335          2.4301424176704291E-020
  0.10573333333333333          2.0810592744759803E-020
  0.10613333333333334          1.3938633094023538E-020
  0.10653333333333335          3.5029568172811359E-021
  0.10693333333333334         -1.0331940638565506E-020
  0.10733333333333335         -2.6978146711596077E-020
  0.10773333333333333         -4.5373942369959303E-020
  0.10813333333333335         -6.3971570097785468E-020
  0.10853333333333333         -8.0774425922698969E-020
  0.10893333333333334         -9.3432454181519708E-020
  0.10933333333333335         -9.9400801407985619E-020
  0.10973333333333334         -9.6161006367253903E-020
  0.11013333333333335         -8.1497653196708809E-020
  0.11053333333333333         -5.3815517622693285E-020
  0.11093333333333334         -1.2474402240769637E-020
  0.11133333333333335          4.1888681482452476E-020
  0.11173333333333334          1.0708670516588693E-019
  0.11213333333333335          1.7919982629211971E-019
  0.11253333333333333          2.5252441158657323E-019
  0.11293333333333334          3.1969220110891506E-019
  0.11333333333333336          3.7199069533758023E-019
  0.11373333333333334          3.9990292283120475E-019
  0.11413333333333335          3.9386742534110572E-019
  0.11453333333333333          3.4523729618335423E-019
  0.11493333333333335          2.4739255721690010E-019
  0.11533333333333333          9.6933748155743285E-020
  0.11573333333333334         -1.0514096310766053E-019
  0.11613333333333335         -3.5239455398165173E-019
  0.11653333333333334         -6.3218100325098865E-019
  0.11693333333333335         -9.2528795551457325E-019
  0.11733333333333333         -1.2061280777879379E-018
  0.11773333333333334         -1.4435941574614719E-018
  0.11813333333333335         -1.6026592314966175E-018
  0.11853333333333334         -1.6467509566754144E-018
  0.11893333333333335         -1.5408632562697716E-018
  0.11933333333333333         -1.2552912473022974E-018
  0.11973333333333334         -7.6979185562986431E-019
  0.12013333333333336         -7.7885232677067561E-020
  0.12053333333333334          8.0906546053569294E-019
  0.12093333333333335          1.8584227531149777E-018
  0.12133333333333333          3.0139580864949113E-018
  0.12173333333333335          4.1951262994917912E-018
  0.12213333333333333          5.2983672745461224E-018
  0.12253333333333334          6.2008014705067743E-018
  0.12293333333333335          6.7665421378853733E-018
  0.12333333333333334          6.8556911148129695E-018
  0.12373333333333335          6.3358411870478938E-018
  0.12413333333333333          5.0956708013430657E-018
  0.12453333333333334          3.0599352664824462E-018
  0.12493333333333335          2.0489001401587951E-019
  0.12533333333333335         -3.4270723503289008E-018
  0.12573333333333336         -7.7149870146483685E-018
  0.12613333333333332         -1.2450631590280792E-017
  0.12653333333333333         -1.7335156268463572E-017
  0.12693333333333334         -2.1982505103970247E-017
  0.12733333333333335         -2.5930861506451237E-017
  0.12773333333333337         -2.8662972895264884E-017
  0.12813333333333332         -2.9635671121178240E-017
  0.12853333333333333         -2.8318250338067085E-017
  0.12893333333333334         -2.4238567432814725E-017
  0.12933333333333336         -1.7034931065137450E-017
  0.12973333333333337         -6.5109313344876057E-018
  0.13013333333333332          7.3103865072690810E-018
  0.13053333333333333          2.4137361884868862E-017
  0.13093333333333335          4.3370379844078174E-017
  0.13133333333333336          6.4077460124636583E-017
  0.13173333333333337          8.4989750680279598E-017
  0.13213333333333332          1.0452152973313081E-016
  0.13253333333333334          1.2081833114174024E-016
  0.13293333333333335          1.3183562251222792E-016
  0.13333333333333336          1.3544872095807995E-016
  0.13373333333333337          1.2959261309344953E-016
  0.13413333333333333          1.1242796687337397E-016
  0.13453333333333334          8.2527068560586724E-017
  0.13493333333333335          3.9071092066721562E-017
  0.13533333333333336         -1.7952491085779247E-017
  0.13573333333333332         -8.7565511698430921E-017
  0.13613333333333333         -1.6764259039864378E-016
  0.13653333333333334         -2.5479815138549342E-016
  0.13693333333333335         -3.4433286910250278E-016
  0.13733333333333336         -4.3025483248079494E-016
  0.13773333333333332         -5.0538845484726430E-016
  0.13813333333333333         -5.6158236757356829E-016
  0.13853333333333334         -5.9002229287101948E-016
  0.13893333333333335         -5.8165265444008133E-016
  0.13933333333333336         -5.2770311432620521E-016
  0.13973333333333332         -4.2031257150416078E-016
  0.14013333333333333         -2.5323672555656893E-016
  0.14053333333333334         -2.2620215034134328E-017
  0.14093333333333335          2.7219038477058438E-016
  0.14133333333333337          6.2781960289502573E-016
  0.14173333333333332          1.0360519493241233E-015
  0.14213333333333333          1.4830670227322391E-015
  0.14253333333333335          1.9487485847154715E-015
  0.14293333333333336          2.4060936484318271E-015
  0.14333333333333337          2.8207427458924088E-015
  0.14373333333333332          3.1506406912660406E-015
  0.14413333333333334          3.3458349870378211E-015
  0.14453333333333335          3.3484019203844752E-015
  0.14493333333333336          3.0924827738328499E-015
  0.14533333333333337          2.5043996570154508E-015
  0.14573333333333333          1.5028055373812244E-015
  0.14613333333333334         -1.1805673696794368E-018
  0.14653333333333335         -2.1039241736195121E-015
  0.14693333333333336         -4.9093775512975071E-015
  0.14733333333333337         -8.5294176439105161E-015
  0.14773333333333333         -1.3084490630733969E-014
  0.14813333333333334         -1.8704655879719922E-014
  0.14853333333333335         -2.5531097689549670E-014
  0.14893333333333336         -3.3718179344530835E-014
  0.14933333333333332         -4.3436107033216487E-014
  0.14973333333333333         -5.4874243441294795E-014
  0.15013333333333334         -6.8245126075890811E-014
  0.15053333333333335         -8.3789210650071083E-014
  0.15093333333333336         -1.0178037340886903E-013