  -1.2000000000000000E-009     0.0000000000000000     
  -1.1960000000000000E-009     0.0000000000000000     
  -1.1920000000000000E-009     0.0000000000000000     
  -1.1880000000000000E-009     0.0000000000000000     
  -1.1840000000000000E-009     0.0000000000000000     
  -1.1800000000000001E-009     0.0000000000000000     
  -1.1760000000000001E-009     0.0000000000000000     
  -1.1720000000000001E-009     0.0000000000000000     
  -1.1679999999999999E-009     0.0000000000000000     
  -1.1639999999999999E-009     0.0000000000000000     
  -1.1599999999999999E-009     0.0000000000000000     
  -1.1559999999999999E-009     0.0000000000000000     
  -1.1520000000000000E-009     0.0000000000000000     
  -1.1480000000000000E-009     0.0000000000000000     
  -1.1440000000000000E-009     0.0000000000000000     
  -1.1400000000000000E-009     0.0000000000000000     
  -1.1360000000000000E-009     0.0000000000000000     
  -1.1320000000000000E-009     0.0000000000000000     
  -1.1280000000000000E-009     0.0000000000000000     
  -1.1240000000000000E-009     0.0000000000000000     
  -1.1200000000000001E-009     0.0000000000000000     
  -1.1160000000000001E-009     0.0000000000000000     
  -1.1120000000000001E-009     0.0000000000000000     
  -1.1079999999999999E-009     0.0000000000000000     
  -1.1039999999999999E-009     0.0000000000000000     
  -1.0999999999999999E-009     0.0000000000000000     
  -1.0959999999999999E-009     0.0000000000000000     
  -1.0920000000000000E-009     0.0000000000000000     
  -1.0880000000000000E-009     0.0000000000000000     
  -1.0840000000000000E-009     0.0000000000000000     
  -1.0800000000000000E-009     0.0000000000000000     
  -1.0760000000000000E-009     0.0000000000000000     
  -1.0720000000000000E-009     0.0000000000000000     
  -1.0680000000000000E-009     0.0000000000000000     
  -1.0640000000000000E-009     0.0000000000000000     
  -1.0600000000000001E-009     0.0000000000000000     
  -1.0560000000000001E-009     0.0000000000000000     
  -1.0520000000000001E-009     0.0000000000000000     
  -1.0480000000000001E-009     0.0000000000000000     
  -1.0439999999999999E-009     0.0000000000000000     
  -1.0399999999999999E-009     0.0000000000000000     
  -1.0359999999999999E-009     0.0000000000000000     
  -1.0320000000000000E-009     0.0000000000000000     
  -1.0280000000000000E-009     0.0000000000000000     
  -1.0240000000000000E-009     0.0000000000000000     
  -1.0200000000000000E-009     0.0000000000000000     
  -1.0160000000000000E-009     0.0000000000000000     
  -1.0120000000000000E-009     0.0000000000000000     
  -1.0080000000000000E-009     0.0000000000000000     
  -1.0040000000000000E-009     0.0000000000000000     
  -1.0000000000000001E-009     0.0000000000000000     
  -9.9600000000000008E-010     0.0000000000000000     
  -9.9199999999999988E-010     0.0000000000000000     
  -9.8799999999999990E-010     0.0000000000000000     
  -9.8399999999999991E-010     0.0000000000000000     
  -9.7999999999999992E-010     0.0000000000000000     
  -9.7599999999999994E-010     0.0000000000000000     
  -9.7199999999999995E-010     0.0000000000000000     
  -9.6799999999999997E-010     0.0000000000000000     
  -9.6399999999999998E-010     0.0000000000000000     
  -9.5999999999999999E-010     0.0000000000000000     
  -9.5600000000000001E-010     0.0000000000000000     
  -9.5200000000000002E-010     0.0000000000000000     
  -9.4800000000000004E-010     0.0000000000000000     
  -9.4400000000000005E-010     0.0000000000000000     
  -9.4000000000000006E-010     0.0000000000000000     
  -9.3600000000000008E-010     0.0000000000000000     
  -9.3200000000000009E-010     0.0000000000000000     
  -9.2800000000000000E-010     0.0000000000000000     
  -9.2400000000000001E-010     0.0000000000000000     
  -9.1999999999999992E-010     0.0000000000000000     
  -9.1599999999999994E-010     0.0000000000000000     
  -9.1199999999999995E-010     0.0000000000000000     
  -9.0799999999999997E-010     0.0000000000000000     
  -9.0399999999999998E-010     0.0000000000000000     
  -8.9999999999999999E-010     0.0000000000000000     
  -8.9600000000000001E-010     0.0000000000000000     
  -8.9200000000000002E-010     0.0000000000000000     
  -8.8800000000000004E-010     0.0000000000000000     
  -8.8400000000000005E-010     0.0000000000000000     
  -8.8000000000000006E-010     0.0000000000000000     
  -8.7599999999999997E-010     0.0000000000000000     
  -8.7199999999999999E-010     0.0000000000000000     
  -8.6800000000000000E-010     0.0000000000000000     
  -8.6400000000000001E-010     0.0000000000000000     
  -8.5999999999999993E-010     0.0000000000000000     
  -8.5599999999999994E-010     0.0000000000000000     
  -8.5199999999999995E-010     0.0000000000000000     
  -8.4799999999999997E-010     0.0000000000000000     
  -8.4399999999999998E-010     0.0000000000000000     
  -8.3999999999999999E-010     0.0000000000000000     
  -8.3600000000000001E-010     0.0000000000000000     
  -8.3200000000000002E-010     0.0000000000000000     
  -8.2800000000000004E-010     0.0000000000000000     
  -8.2400000000000005E-010     0.0000000000000000     
  -8.2000000000000006E-010     0.0000000000000000     
  -8.1599999999999997E-010     0.0000000000000000     
  -8.1199999999999999E-010     0.0000000000000000     
  -8.0800000000000000E-010     0.0000000000000000     
  -8.0400000000000002E-010     0.0000000000000000     
  -7.9999999999999993E-010     0.0000000000000000     
  -7.9599999999999994E-010     0.0000000000000000     
  -7.9199999999999995E-010     0.0000000000000000     
  -7.8799999999999997E-010     0.0000000000000000     
  -7.8399999999999998E-010     0.0000000000000000     
  -7.7999999999999999E-010     0.0000000000000000     
  -7.7600000000000001E-010     0.0000000000000000     
  -7.7200000000000002E-010     0.0000000000000000     
  -7.6800000000000004E-010     0.0000000000000000     
  -7.6400000000000005E-010     0.0000000000000000     
  -7.6000000000000006E-010     0.0000000000000000     
  -7.5600000000000008E-010     0.0000000000000000     
  -7.5199999999999999E-010     0.0000000000000000     
  -7.4800000000000000E-010     0.0000000000000000     
  -7.4400000000000002E-010     0.0000000000000000     
  -7.3999999999999993E-010     0.0000000000000000     
  -7.3599999999999994E-010     0.0000000000000000     
  -7.3199999999999995E-010     0.0000000000000000     
  -7.2799999999999997E-010     0.0000000000000000     
  -7.2399999999999998E-010     0.0000000000000000     
  -7.2000000000000000E-010     0.0000000000000000     
  -7.1600000000000001E-010     0.0000000000000000     
  -7.1200000000000002E-010     3.6797058455477030E-047
  -7.0800000000000004E-010     1.1039117536643109E-046
  -7.0400000000000005E-010     1.8398529227738515E-046
  -6.9999999999999996E-010     1.8398529227738515E-046
  -6.9599999999999997E-010     1.1039117536643109E-046
  -6.9199999999999999E-010    -2.3678180218062708E-046
  -6.8800000000000000E-010    -8.0473713046054743E-046
  -6.8400000000000002E-010    -1.3566930072927029E-045
  -6.8000000000000003E-010    -1.6558676304964664E-045
  -6.7600000000000004E-010    -1.6078692761531716E-045
  -6.7199999999999995E-010    -7.1833673289385248E-046
  -6.6799999999999997E-010     2.7384757998243729E-045
  -6.6399999999999998E-010     6.1094107110484180E-045
  -6.6000000000000000E-010     1.0099492475687702E-044
  -6.5600000000000001E-010     1.0972449336132540E-044
  -6.5200000000000002E-010     8.2011974513796461E-045
  -6.4800000000000004E-010    -7.1465721810921960E-046
  -6.4400000000000005E-010    -1.6708353391705416E-044
  -6.3999999999999996E-010    -3.8314899844226336E-044
  -6.3599999999999998E-010    -6.2973525008413353E-044
  -6.3199999999999999E-010    -8.0747618252828023E-044
  -6.2800000000000000E-010    -7.7654078800620978E-044
  -6.2400000000000002E-010    -3.8947284423598375E-044
  -6.2000000000000003E-010     4.6958244949502025E-044
  -6.1600000000000004E-010     1.7770092567977767E-043
  -6.1199999999999995E-010     3.3610977167670341E-043
  -6.0799999999999997E-010     4.7689860168536531E-043
  -6.0399999999999998E-010     5.3336829745955563E-043
  -6.0000000000000000E-010     4.1924868894364106E-043
  -5.9600000000000001E-010     5.7246505603814605E-044
  -5.9200000000000002E-010    -5.8943093790773337E-043
  -5.8800000000000004E-010    -1.4682184075163351E-042
  -5.8400000000000005E-010    -2.4046213995623538E-042
  -5.7999999999999996E-010    -3.0800843371309187E-042
  -5.7599999999999998E-010    -3.0565986674057957E-042
  -5.7199999999999999E-010    -1.8661587713123876E-042
  -5.6800000000000000E-010     8.3221596908751425E-043
  -5.6400000000000002E-010     5.0472190916768797E-042
  -5.6000000000000003E-010     1.0236724287649238E-041
  -5.5600000000000004E-010     1.5152738279459797E-041
  -5.5199999999999995E-010     1.7844821436776493E-041
  -5.4799999999999997E-010     1.5925830020429294E-041
  -5.4399999999999998E-010     7.1501229205279046E-042
  -5.4000000000000000E-010    -9.7052105394971435E-042
  -5.3600000000000001E-010    -3.3804051772865485E-041
  -5.3200000000000002E-010    -6.1307711215048845E-041
  -5.2800000000000004E-010    -8.4931271643608802E-041
  -5.2400000000000005E-010    -9.4406884768370765E-041
  -5.1999999999999996E-010    -7.8218505922988505E-041
  -5.1599999999999998E-010    -2.6715409466068283E-041
  -5.1199999999999999E-010     6.3699352375558261E-041
  -5.0800000000000000E-010     1.8608202458824099E-040
  -5.0400000000000002E-010     3.1951576230523637E-040
  -5.0000000000000003E-010     4.2830061060002515E-040
  -4.9600000000000004E-010     4.6537922460697361E-040
  -4.9199999999999996E-010     3.8095643910387241E-040
  -4.8799999999999997E-010     1.3615113245106622E-040
  -4.8399999999999998E-010    -2.8014590996281580E-040
  -4.8000000000000000E-010    -8.3475922952692918E-040
  -4.7600000000000001E-010    -1.4390281673149206E-039
  -4.7200000000000002E-010    -1.9483395541600796E-039
  -4.6800000000000004E-010    -2.1768201337222500E-039
  -4.6400000000000005E-010    -1.9289695339470879E-039
  -4.5999999999999996E-010    -1.0460017636229145E-039
  -4.5599999999999998E-010     5.3995978862289076E-040
  -4.5199999999999999E-010     2.7546111329330439E-039
  -4.4800000000000000E-010     5.3458016317542757E-039
  -4.4400000000000002E-010     7.8749104313376173E-039
  -4.4000000000000003E-010     9.7422222036320043E-039
  -4.3600000000000005E-010     1.0246740862492920E-038
  -4.3199999999999996E-010     8.6745525894931776E-039
  -4.2799999999999997E-010     4.4069822924559396E-039
  -4.2399999999999998E-010    -2.9573244727700321E-039
  -4.2000000000000000E-010    -1.3463496453887635E-038
  -4.1600000000000001E-010    -2.6630862670063941E-038
  -4.1200000000000002E-010    -4.1234242934264399E-038
  -4.0800000000000004E-010    -5.5030688872073974E-038
  -4.0400000000000005E-010    -6.4468427561208294E-038
  -3.9999999999999996E-010    -6.4490238583705590E-038
  -3.9599999999999998E-010    -4.8642886954883094E-038
  -3.9199999999999999E-010    -9.7966638859426435E-039
  -3.8800000000000000E-010     5.8187546403883091E-038
  -3.8400000000000002E-010     1.5760069760034463E-037
  -3.8000000000000003E-010     2.8288234183741809E-037
  -3.7600000000000005E-010     4.1602984645625525E-037
  -3.7200000000000006E-010     5.2268224821394818E-037
  -3.6799999999999997E-010     5.5089318912142734E-037
  -3.6399999999999998E-010     4.3515208791752493E-037
  -3.6000000000000000E-010     1.0818626662904467E-037
  -3.5600000000000001E-010    -4.7790786880902935E-037
  -3.5200000000000003E-010    -1.3218980243396651E-036
  -3.4800000000000004E-010    -2.3392371862103279E-036
  -3.4400000000000005E-010    -3.3321142017413657E-036
  -3.3999999999999996E-010    -3.9766952672947582E-036
  -3.3599999999999998E-010    -3.8431999777316509E-036
  -3.3199999999999999E-010    -2.4635447436617218E-036
  -3.2800000000000000E-010     5.4511715438507066E-037
  -3.2400000000000002E-010     5.3057210236380150E-036
  -3.2000000000000003E-010     1.1479732423815992E-035
  -3.1600000000000005E-010     1.8086223295456373E-035
  -3.1200000000000006E-010     2.3410922310416948E-035
  -3.0799999999999997E-010     2.5087041045618513E-035
  -3.0399999999999998E-010     2.0423679273820861E-035
  -3.0000000000000000E-010     7.0245399836648166E-036
  -2.9600000000000001E-010    -1.6325010382547887E-035
  -2.9200000000000003E-010    -4.8618400925399790E-035
  -2.8800000000000004E-010    -8.5661590450096207E-035
  -2.8400000000000005E-010    -1.1950757864226198E-034
  -2.7999999999999996E-010    -1.3867715916181032E-034
  -2.7599999999999998E-010    -1.2952631674581383E-034
  -2.7199999999999999E-010    -7.8976093250887802E-035
  -2.6800000000000011E-010     2.1461185192684841E-035
  -2.6399999999999992E-010     1.7083307643385141E-034
  -2.5999999999999993E-010     3.5402739175535101E-034
  -2.5599999999999994E-010     5.3857940757071668E-034
  -2.5199999999999996E-010     6.7467681665398485E-034
  -2.4799999999999997E-010     6.9996868800474893E-034
  -2.4399999999999998E-010     5.5024141137067061E-034
  -2.4000000000000000E-010     1.7592491239566667E-034
  -2.3600000000000001E-010    -4.3722437599570214E-034
  -2.3200000000000003E-010    -1.2468448212673685E-033
  -2.2800000000000004E-010    -2.1375342137479130E-033
  -2.2400000000000005E-010    -2.9159503605483625E-033
  -2.2000000000000007E-010    -3.3241744352021810E-033
  -2.1600000000000008E-010    -3.0763244185140282E-033
  -2.1200000000000010E-010    -1.9195610655980967E-033
  -2.0800000000000011E-010     2.8523110241473113E-034
  -2.0399999999999992E-010     3.4750299444648631E-033
  -1.9999999999999993E-010     7.3077623370374864E-033
  -1.9599999999999994E-010     1.1121636816430784E-032
  -1.9199999999999996E-010     1.3957012314353955E-032
  -1.8799999999999997E-010     1.4662622624824445E-032
  -1.8399999999999998E-010     1.2096104215341451E-032
  -1.8000000000000000E-010     5.4094634456900802E-033
  -1.7600000000000001E-010    -5.6148756053029568E-033
  -1.7200000000000003E-010    -2.0238525433450673E-032
  -1.6800000000000004E-010    -3.6535786840726398E-032
  -1.6400000000000005E-010    -5.1351369052723234E-032
  -1.6000000000000007E-010    -6.0534852296143447E-032
  -1.5600000000000008E-010    -5.9508263704603901E-032
  -1.5200000000000010E-010    -4.4166173967024167E-032
  -1.4800000000000011E-010    -1.2029009193016121E-032
  -1.4399999999999992E-010     3.6520166184289335E-032
  -1.3999999999999993E-010     9.7169808624087037E-032
  -1.3599999999999994E-010     1.6109700984505284E-031
  -1.3199999999999996E-010     2.1518620995676817E-031
  -1.2799999999999997E-010     2.4330462105269716E-031
  -1.2399999999999999E-010     2.2874439644352373E-031
  -1.2000000000000000E-010     1.5771972136092051E-031
  -1.1600000000000001E-010     2.3530774283203416E-032
  -1.1200000000000003E-010    -1.6928040325512544E-031
  -1.0800000000000004E-010    -4.0169546310041563E-031
  -1.0400000000000005E-010    -6.3894053614654478E-031
  -1.0000000000000007E-010    -8.3213243850226691E-031
  -9.6000000000000082E-011    -9.2352794557908441E-031
  -9.2000000000000096E-011    -8.5551527469232284E-031
  -8.8000000000000110E-011    -5.8274572869394778E-031
  -8.3999999999999917E-011    -8.5941669658565914E-032
  -7.9999999999999931E-011     6.1491284715527951E-031
  -7.5999999999999944E-011     1.4509172729971355E-030
  -7.1999999999999958E-011     2.3012743134580474E-030
  -6.7999999999999972E-011     2.9997766067464739E-030
  -6.3999999999999986E-011     3.3525379774597265E-030
  -6.0000000000000000E-011     3.1670702754778282E-030
  -5.6000000000000013E-011     2.2905972809462467E-030
  -5.2000000000000027E-011     6.5305810549509908E-031
  -4.8000000000000041E-011    -1.6920377497389600E-030
  -4.4000000000000055E-011    -4.5373792704846583E-030
  -4.0000000000000069E-011    -7.5112345202928321E-030
  -3.6000000000000082E-011    -1.0094386859815985E-029
  -3.2000000000000096E-011    -1.1669790382776832E-029
  -2.8000000000000110E-011    -1.1605575956212774E-029
  -2.3999999999999917E-011    -9.3661998074697638E-030
  -1.9999999999999931E-011    -4.6399839373306659E-030
  -1.5999999999999945E-011     2.5348927041601098E-030
  -1.1999999999999959E-011     1.1668610858535260E-029
  -7.9999999999999724E-012     2.1766842882907168E-029
  -3.9999999999999862E-012     3.1349948904148835E-029
   0.0000000000000000          3.8561452955834658E-029
   3.9999999999999862E-012     4.1372794639516356E-029
   7.9999999999999724E-012     3.7877357456112453E-029
   1.1999999999999959E-011     2.6650243989069399E-029
   1.5999999999999945E-011     7.1333956816940257E-030
   1.9999999999999931E-011    -2.0009336855667076E-029
   2.3999999999999917E-011    -5.2632682641973563E-029
   2.7999999999999903E-011    -8.7014401447394074E-029
   3.1999999999999889E-011    -1.1798509892491571E-028
   3.6000000000000082E-011    -1.3932718434035001E-028
   4.0000000000000069E-011    -1.4445754633992003E-028
   4.4000000000000055E-011    -1.2736982357183720E-028
   4.8000000000000041E-011    -8.3766030247845378E-029
   5.2000000000000027E-011    -1.2259286810396498E-029
   5.6000000000000013E-011     8.4515351095295098E-029
   6.0000000000000000E-011     1.9907820236624707E-028
   6.3999999999999986E-011     3.1878134977472044E-028
   6.7999999999999972E-011     4.2618318057011242E-028
   7.1999999999999958E-011     5.0027495907127106E-028
   7.5999999999999944E-011     5.1863343093602612E-028
   7.9999999999999931E-011     4.6045655418667912E-028
   8.3999999999999917E-011     3.1029351094043046E-028
   8.7999999999999903E-011     6.2117339255605718E-029
   9.1999999999999889E-011    -2.7677339587230414E-028
   9.6000000000000082E-011    -6.8267231338552251E-028
   1.0000000000000007E-010    -1.1139295953412681E-027
   1.0400000000000005E-010    -1.5116839956224353E-027
   1.0800000000000004E-010    -1.8034644702883235E-027
   1.1200000000000003E-010    -1.9100115310177168E-027
   1.1600000000000001E-010    -1.7552881566107893E-027
   1.2000000000000000E-010    -1.2791458154484923E-027
   1.2399999999999999E-010    -4.5154146465472923E-028
   1.2799999999999997E-010     7.1338752087409398E-028
   1.3199999999999996E-010     2.1455848732419697E-027
   1.3599999999999994E-010     3.7121879033082383E-027
   1.3999999999999993E-010     5.2180390165438146E-027
   1.4399999999999992E-010     6.4157938254878695E-027
   1.4799999999999990E-010     7.0270206545267439E-027
   1.5199999999999989E-010     6.7744532842398031E-027
   1.5600000000000008E-010     5.4239034401440568E-027
   1.6000000000000007E-010     2.8324516020936557E-027
   1.6400000000000005E-010    -1.0024113820786218E-027
   1.6800000000000004E-010    -5.8997200340610171E-027
   1.7200000000000003E-010    -1.1466214713220029E-026
   1.7600000000000001E-010    -1.7090178303014167E-026
   1.8000000000000000E-010    -2.1965433947040829E-026
   1.8399999999999998E-010    -2.5150705964224897E-026
   1.8799999999999997E-010    -2.5665888785164626E-026
   1.9199999999999996E-010    -2.2621880534044607E-026
   1.9599999999999994E-010    -1.5374872883953310E-026
   1.9999999999999993E-010    -3.6899983915785723E-027
   2.0399999999999992E-010     1.2106206762995782E-026
   2.0799999999999990E-010     3.1009104315331636E-026
   2.1199999999999989E-010     5.1281220605192451E-026
   2.1600000000000008E-010     7.0484133573051497E-026
   2.2000000000000007E-010     8.5616303420482082E-026
   2.2400000000000005E-010     9.3366726670790931E-026
   2.2800000000000004E-010     9.0481360039278314E-026
   2.3200000000000003E-010     7.4223065898056351E-026
   2.3600000000000001E-010     4.2888466912703019E-026
   2.4000000000000000E-010    -3.6720865745099409E-027
   2.4399999999999998E-010    -6.3599437362071820E-026
   2.4799999999999997E-010    -1.3271250835100322E-025
   2.5199999999999996E-010    -2.0441569188028348E-025
   2.5599999999999994E-010    -2.6989677030570422E-025
   2.5999999999999993E-010    -3.1866626080656810E-025
   2.6399999999999992E-010    -3.3945859253229725E-025
   2.6799999999999990E-010    -3.2147536703963562E-025
   2.7199999999999989E-010    -2.5590286447181919E-025
   2.7600000000000008E-010    -1.3758512304097214E-025
   2.8000000000000007E-010     3.3315473874491914E-026
   2.8400000000000005E-010     2.4987883646936096E-025
   2.8800000000000004E-010     4.9744386475284507E-025
   2.9200000000000003E-010     7.5331983640238237E-025
   2.9600000000000001E-010     9.8740869468667946E-025
   3.0000000000000000E-010     1.1639007065000222E-024
   3.0399999999999998E-010     1.2441203663934798E-024
   3.0799999999999997E-010     1.1904823465018046E-024
   3.1199999999999996E-010     9.7137994657601110E-025
   3.1599999999999994E-010     5.6667261009059447E-025
   3.1999999999999993E-010    -2.6715678375761317E-026
   3.2399999999999992E-010    -7.8971361903372728E-025
   3.2799999999999990E-010    -1.6772654556434453E-024
   3.3199999999999989E-010    -2.6165180606102613E-024
   3.3600000000000008E-010    -3.5077860687478774E-024
   3.4000000000000007E-010    -4.2289288913879877E-024
   3.4400000000000005E-010    -4.6435611750501998E-024
   3.4800000000000004E-010    -4.6131900609496991E-024
   3.5200000000000003E-010    -4.0129638968211761E-024
   3.5600000000000001E-010    -2.7502129243903286E-024
   3.6000000000000000E-010    -7.8443047893981685E-025
   3.6399999999999998E-010     1.8531944534296142E-024
   3.6799999999999997E-010     5.0430542661691918E-024
   3.7199999999999996E-010     8.5659134411121199E-024
   3.7599999999999994E-010     1.2100051137614511E-023
   3.7999999999999993E-010     1.5229438926817248E-023
   3.8399999999999991E-010     1.7465169284364438E-023
   3.8799999999999990E-010     1.8281434436403313E-023
   3.9199999999999989E-010     1.7166108110722640E-023
   3.9599999999999987E-010     1.3684309904774289E-023
   4.0000000000000007E-010     7.5513627021250894E-024
   4.0400000000000005E-010    -1.2905242804278816E-024
   4.0800000000000004E-010    -1.2599627280529784E-023
   4.1200000000000002E-010    -2.5775671231005467E-023
   4.1600000000000001E-010    -3.9825150944553332E-023
   4.2000000000000000E-010    -5.3362101498269247E-023
   4.2399999999999998E-010    -6.4654492225554360E-023
   4.2799999999999997E-010    -7.1724181156649566E-023
   4.3199999999999996E-010    -7.2504394319815781E-023
   4.3599999999999994E-010    -6.5053203848930045E-023
   4.3999999999999993E-010    -4.7814581050912445E-023
   4.4399999999999991E-010    -1.9910570298463729E-023
   4.4799999999999990E-010     1.8560145319644804E-023
   4.5199999999999989E-010     6.6249972704924110E-023
   4.5599999999999987E-010     1.2035543368786499E-022
   4.6000000000000007E-010     1.7651817363251288E-022
   4.6400000000000005E-010     2.2887623894500923E-022
   4.6800000000000004E-010     2.7030284515931680E-022
   4.7200000000000002E-010     2.9285852903998756E-022
   4.7600000000000001E-010     2.8846572179754219E-022
   4.8000000000000000E-010     2.4979130271113744E-022
   4.8399999999999998E-010     1.7129518220905893E-022
   4.8799999999999997E-010     5.0371955687030507E-023
   4.9199999999999996E-010    -1.1151814265084468E-022
   4.9599999999999994E-010    -3.0786041058366447E-022
   4.9999999999999993E-010    -5.2639086385299965E-022
   5.0399999999999991E-010    -7.4885524263783177E-022
   5.0799999999999990E-010    -9.5137478878205847E-022
   5.1199999999999989E-010    -1.1055447495529301E-021
   5.1599999999999987E-010    -1.1803442695025800E-021
   5.2000000000000007E-010    -1.1448637953348598E-021
   5.2400000000000005E-010    -9.7177265884193683E-022
   5.2800000000000004E-010    -6.4133857967659579E-022
   5.3200000000000002E-010    -1.4570579431453703E-022
   5.3600000000000001E-010     5.0697122619119152E-022
   5.4000000000000000E-010     1.2890318097168262E-021
   5.4399999999999998E-010     2.1510031156705081E-021
   5.4799999999999997E-010     3.0210525886427331E-021
   5.5199999999999995E-010     3.8067236974174443E-021
   5.5599999999999994E-010     4.3993676294209305E-021
   5.5999999999999993E-010     4.6815020308210314E-021
   5.6399999999999991E-010     4.5370686311055944E-021
   5.6799999999999990E-010     3.8642485110949119E-021
   5.7199999999999989E-010     2.5901312900733052E-021
   5.7599999999999987E-010     6.8615690656564945E-022
   5.8000000000000007E-010    -1.8170994902856193E-021
   5.8400000000000005E-010    -4.8175292257365862E-021
   5.8800000000000004E-010    -8.1333840093179483E-021
   5.9200000000000002E-010    -1.1501400673193525E-020
   5.9600000000000001E-010    -1.4582932206466492E-020
   6.0000000000000000E-010    -1.6979460648346871E-020
   6.0399999999999998E-010    -1.8258260472003927E-020
   6.0799999999999997E-010    -1.7988124172835637E-020
   6.1199999999999995E-010    -1.5783986788283413E-020
   6.1599999999999994E-010    -1.1358156822618824E-020
   6.1999999999999993E-010    -4.5745784429711186E-021
   6.2399999999999991E-010     4.4985828016864834E-021
   6.2799999999999990E-010     1.5543726932636975E-020
   6.3199999999999989E-010     2.7962292926999595E-020
   6.3599999999999987E-010     4.0863404466225749E-020
   6.4000000000000006E-010     5.3078716685777977E-020
   6.4400000000000005E-010     6.3208368445818245E-020
   6.4800000000000004E-010     6.9701070318257650E-020
   6.5200000000000002E-010     7.0968708274912214E-020
   6.5600000000000001E-010     6.5532688965689791E-020
   6.6000000000000000E-010     5.2195451353627671E-020
   6.6399999999999978E-010     3.0226638796438289E-020
   6.6800000000000017E-010    -4.5036268527339223E-022
   6.7200000000000016E-010    -3.9089290267499793E-020
   6.7600000000000015E-010    -8.3989381686273504E-020
   6.8000000000000013E-010    -1.3242273518620426E-019
   6.8400000000000012E-010    -1.8064112613348019E-019
   6.8800000000000011E-010    -2.2398075433738069E-019
   6.9200000000000009E-010    -2.5707773559204879E-019
   6.9600000000000008E-010    -2.7420058707428915E-019
   7.0000000000000006E-010    -2.6969629063146754E-019
   7.0400000000000005E-010    -2.3853521123779351E-019
   7.0800000000000004E-010    -1.7692813105040540E-019
   7.1200000000000002E-010    -8.2975923170984349E-020
   7.1600000000000001E-010     4.2699688141251693E-020
   7.2000000000000000E-010     1.9640565353687239E-019
   7.2399999999999998E-010     3.7097528140963549E-019
   7.2799999999999997E-010     5.5558493481157946E-019
   7.3199999999999995E-010     7.3585546500192289E-019
   7.3599999999999994E-010     8.9429566885889308E-019
   7.3999999999999993E-010     1.0111266712492243E-018
   7.4399999999999991E-010     1.0655016548051734E-018
   7.4799999999999990E-010     1.0371041822583587E-018
   7.5199999999999988E-010     9.0807198654462160E-019
   7.5599999999999987E-010     6.6515316125566057E-019
   7.5999999999999986E-010     3.0195963393696791E-019
   7.6399999999999984E-010    -1.7885294121631894E-019
   7.6799999999999983E-010    -7.6368408004148781E-019
   7.7199999999999982E-010    -1.4265919825112267E-018
   7.7599999999999980E-010    -2.1286346125403278E-018
   7.7999999999999979E-010    -2.8181686035322936E-018
   7.8399999999999977E-010    -3.4323011863879333E-018
   7.8800000000000017E-010    -3.8996262787446195E-018
   7.9200000000000016E-010    -4.1443078324480834E-018
   7.9600000000000015E-010    -4.0914675186363025E-018
   8.0000000000000013E-010    -3.6737219102567814E-018
   8.0400000000000012E-010    -2.8385819373893337E-018
   8.0800000000000010E-010    -1.5562988779499570E-018
   8.1200000000000009E-010     1.7239452784662079E-019
   8.1600000000000008E-010     2.3093015728400022E-018
   8.2000000000000006E-010     4.7732772361832235E-018
   8.2400000000000005E-010     7.4370200454277470E-018
   8.2800000000000004E-010     1.0126902576582565E-017
   8.3200000000000002E-010     1.2626524215880770E-017
   8.3600000000000001E-010     1.4684516728059113E-017
   8.3999999999999999E-010     1.6026918530283079E-017
   8.4399999999999998E-010     1.6374129206627843E-017
   8.4799999999999997E-010     1.5462094981624078E-017
   8.5199999999999995E-010     1.3066981377378250E-017
   8.5599999999999994E-010     9.0321486053020610E-018
   8.5999999999999993E-010     3.2958035898840361E-018
   8.6399999999999991E-010    -4.0826701577785719E-018
   8.6799999999999990E-010    -1.2900047469502186E-017
   8.7199999999999988E-010    -2.2792819168203713E-017
   8.7599999999999987E-010    -3.3229556143077047E-017
   8.7999999999999986E-010    -4.3514597128219909E-017
   8.8399999999999984E-010    -5.2805175078815458E-017
   8.8799999999999983E-010    -6.0143574666167389E-017
   8.9199999999999981E-010    -6.4505059407870554E-017
   8.9599999999999980E-010    -6.4861389768175847E-017
   8.9999999999999979E-010    -6.0258324363099785E-017
   9.0399999999999977E-010    -4.9904383141414797E-017
   9.0799999999999976E-010    -3.3266593368389436E-017
   9.1200000000000016E-010    -1.0167538547382842E-017
   9.1600000000000015E-010     1.9123146762996250E-017
   9.2000000000000013E-010     5.3810789289001255E-017
   9.2400000000000012E-010     9.2519684277053975E-017
   9.2800000000000010E-010     1.3326785380494432E-016
   9.3200000000000009E-010     1.7348072254964507E-016
   9.3600000000000008E-010     2.1005087671877603E-016
   9.4000000000000006E-010     2.3944905698872253E-016
   9.4400000000000005E-010     2.5788895825968545E-016
   9.4800000000000004E-010     2.6154548984848369E-016
   9.5200000000000002E-010     2.4682126705698149E-016
   9.5600000000000001E-010     2.1065305093538918E-016
   9.5999999999999999E-010     1.5084427035024756E-016
   9.6399999999999998E-010     6.6405641038177164E-017
   9.6799999999999997E-010    -4.2118062828411187E-017
   9.7199999999999995E-010    -1.7236072979471292E-016
   9.7599999999999994E-010    -3.1991494230364907E-016