  -1.2000000000000000E-009     0.0000000000000000     
  -1.1960000000000000E-009     0.0000000000000000     
  -1.1920000000000000E-009     0.0000000000000000     
  -1.1880000000000000E-009     0.0000000000000000     
  -1.1840000000000000E-009     0.0000000000000000     
  -1.1800000000000001E-009     0.0000000000000000     
  -1.1760000000000001E-009     0.0000000000000000     
  -1.1720000000000001E-009     0.0000000000000000     
  -1.1679999999999999E-009     0.0000000000000000     
  -1.1639999999999999E-009     0.0000000000000000     
  -1.1599999999999999E-009     0.0000000000000000     
  -1.1559999999999999E-009     0.0000000000000000     
  -1.1520000000000000E-009     0.0000000000000000     
  -1.1480000000000000E-009     0.0000000000000000     
  -1.1440000000000000E-009     0.0000000000000000     
  -1.1400000000000000E-009     0.0000000000000000     
  -1.1360000000000000E-009     0.0000000000000000     
  -1.1320000000000000E-009     0.0000000000000000     
  -1.1280000000000000E-009     0.0000000000000000     
  -1.1240000000000000E-009     0.0000000000000000     
  -1.1200000000000001E-009     0.0000000000000000     
  -1.1160000000000001E-009     0.0000000000000000     
  -1.1120000000000001E-009     0.0000000000000000     
  -1.1079999999999999E-009     0.0000000000000000     
  -1.1039999999999999E-009     0.0000000000000000     
  -1.0999999999999999E-009     0.0000000000000000     
  -1.0959999999999999E-009     0.0000000000000000     
  -1.0920000000000000E-009     0.0000000000000000     
  -1.0880000000000000E-009     0.0000000000000000     
  -1.0840000000000000E-009     0.0000000000000000     
  -1.0800000000000000E-009     0.0000000000000000     
  -1.0760000000000000E-009     0.0000000000000000     
  -1.0720000000000000E-009     0.0000000000000000     
  -1.0680000000000000E-009     0.0000000000000000     
  -1.0640000000000000E-009     0.0000000000000000     
  -1.0600000000000001E-009     0.0000000000000000     
  -1.0560000000000001E-009     0.0000000000000000     
  -1.0520000000000001E-009     0.0000000000000000     
  -1.0480000000000001E-009     0.0000000000000000     
  -1.0439999999999999E-009     0.0000000000000000     
  -1.0399999999999999E-009     0.0000000000000000     
  -1.0359999999999999E-009     0.0000000000000000     
  -1.0320000000000000E-009     0.0000000000000000     
  -1.0280000000000000E-009     0.0000000000000000     
  -1.0240000000000000E-009     0.0000000000000000     
  -1.0200000000000000E-009     0.0000000000000000     
  -1.0160000000000000E-009     0.0000000000000000     
  -1.0120000000000000E-009     0.0000000000000000     
  -1.0080000000000000E-009     0.0000000000000000     
  -1.0040000000000000E-009     0.0000000000000000     
  -1.0000000000000001E-009     0.0000000000000000     
  -9.9600000000000008E-010     0.0000000000000000     
  -9.9199999999999988E-010     0.0000000000000000     
  -9.8799999999999990E-010     0.0000000000000000     
  -9.8399999999999991E-010     0.0000000000000000     
  -9.7999999999999992E-010     0.0000000000000000     
  -9.7599999999999994E-010     0.0000000000000000     
  -9.7199999999999995E-010     0.0000000000000000     
  -9.6799999999999997E-010     0.0000000000000000     
  -9.6399999999999998E-010     0.0000000000000000     
  -9.5999999999999999E-010     0.0000000000000000     
  -9.5600000000000001E-010     0.0000000000000000     
  -9.5200000000000002E-010     0.0000000000000000     
  -9.4800000000000004E-010     0.0000000000000000     
  -9.4400000000000005E-010     0.0000000000000000     
  -9.4000000000000006E-010     0.0000000000000000     
  -9.3600000000000008E-010     0.0000000000000000     
  -9.3200000000000009E-010     0.0000000000000000     
  -9.2800000000000000E-010     0.0000000000000000     
  -9.2400000000000001E-010     0.0000000000000000     
  -9.1999999999999992E-010     0.0000000000000000     
  -9.1599999999999994E-010     0.0000000000000000     
  -9.1199999999999995E-010     0.0000000000000000     
  -9.0799999999999997E-010     0.0000000000000000     
  -9.0399999999999998E-010     0.0000000000000000     
  -8.9999999999999999E-010     0.0000000000000000     
  -8.9600000000000001E-010     0.0000000000000000     
  -8.9200000000000002E-010     0.0000000000000000     
  -8.8800000000000004E-010     0.0000000000000000     
  -8.8400000000000005E-010     0.0000000000000000     
  -8.8000000000000006E-010     0.0000000000000000     
  -8.7599999999999997E-010     0.0000000000000000     
  -8.7199999999999999E-010     0.0000000000000000     
  -8.6800000000000000E-010     0.0000000000000000     
  -8.6400000000000001E-010     0.0000000000000000     
  -8.5999999999999993E-010     0.0000000000000000     
  -8.5599999999999994E-010     0.0000000000000000     
  -8.5199999999999995E-010     0.0000000000000000     
  -8.4799999999999997E-010     0.0000000000000000     
  -8.4399999999999998E-010     0.0000000000000000     
  -8.3999999999999999E-010     0.0000000000000000     
  -8.3600000000000001E-010     0.0000000000000000     
  -8.3200000000000002E-010     0.0000000000000000     
  -8.2800000000000004E-010     0.0000000000000000     
  -8.2400000000000005E-010     0.0000000000000000     
  -8.2000000000000006E-010     0.0000000000000000     
  -8.1599999999999997E-010     0.0000000000000000     
  -8.1199999999999999E-010     0.0000000000000000     
  -8.0800000000000000E-010     0.0000000000000000     
  -8.0400000000000002E-010     0.0000000000000000     
  -7.9999999999999993E-010     0.0000000000000000     
  -7.9599999999999994E-010     0.0000000000000000     
  -7.9199999999999995E-010     0.0000000000000000     
  -7.8799999999999997E-010     0.0000000000000000     
  -7.8399999999999998E-010     0.0000000000000000     
  -7.7999999999999999E-010     0.0000000000000000     
  -7.7600000000000001E-010     0.0000000000000000     
  -7.7200000000000002E-010     0.0000000000000000     
  -7.6800000000000004E-010     0.0000000000000000     
  -7.6400000000000005E-010     0.0000000000000000     
  -7.6000000000000006E-010     0.0000000000000000     
  -7.5600000000000008E-010     0.0000000000000000     
  -7.5199999999999999E-010     0.0000000000000000     
  -7.4800000000000000E-010     0.0000000000000000     
  -7.4400000000000002E-010     0.0000000000000000     
  -7.3999999999999993E-010     0.0000000000000000     
  -7.3599999999999994E-010     0.0000000000000000     
  -7.3199999999999995E-010     0.0000000000000000     
  -7.2799999999999997E-010     0.0000000000000000     
  -7.2399999999999998E-010     0.0000000000000000     
  -7.2000000000000000E-010     0.0000000000000000     
  -7.1600000000000001E-010     0.0000000000000000     
  -7.1200000000000002E-010     0.0000000000000000     
  -7.0800000000000004E-010     0.0000000000000000     
  -7.0400000000000005E-010     0.0000000000000000     
  -6.9999999999999996E-010     0.0000000000000000     
  -6.9599999999999997E-010     0.0000000000000000     
  -6.9199999999999999E-010     0.0000000000000000     
  -6.8800000000000000E-010     0.0000000000000000     
  -6.8400000000000002E-010     0.0000000000000000     
  -6.8000000000000003E-010     0.0000000000000000     
  -6.7600000000000004E-010     0.0000000000000000     
  -6.7199999999999995E-010     0.0000000000000000     
  -6.6799999999999997E-010     0.0000000000000000     
  -6.6399999999999998E-010     0.0000000000000000     
  -6.6000000000000000E-010     0.0000000000000000     
  -6.5600000000000001E-010     0.0000000000000000     
  -6.5200000000000002E-010     0.0000000000000000     
  -6.4800000000000004E-010     0.0000000000000000     
  -6.4400000000000005E-010     0.0000000000000000     
  -6.3999999999999996E-010     0.0000000000000000     
  -6.3599999999999998E-010     0.0000000000000000     
  -6.3199999999999999E-010     0.0000000000000000     
  -6.2800000000000000E-010     0.0000000000000000     
  -6.2400000000000002E-010     0.0000000000000000     
  -6.2000000000000003E-010     0.0000000000000000     
  -6.1600000000000004E-010     0.0000000000000000     
  -6.1199999999999995E-010     0.0000000000000000     
  -6.0799999999999997E-010     0.0000000000000000     
  -6.0399999999999998E-010     0.0000000000000000     
  -6.0000000000000000E-010     0.0000000000000000     
  -5.9600000000000001E-010     0.0000000000000000     
  -5.9200000000000002E-010     0.0000000000000000     
  -5.8800000000000004E-010     0.0000000000000000     
  -5.8400000000000005E-010     0.0000000000000000     
  -5.7999999999999996E-010     0.0000000000000000     
  -5.7599999999999998E-010     0.0000000000000000     
  -5.7199999999999999E-010     0.0000000000000000     
  -5.6800000000000000E-010     0.0000000000000000     
  -5.6400000000000002E-010     0.0000000000000000     
  -5.6000000000000003E-010     0.0000000000000000     
  -5.5600000000000004E-010     0.0000000000000000     
  -5.5199999999999995E-010     0.0000000000000000     
  -5.4799999999999997E-010     0.0000000000000000     
  -5.4399999999999998E-010     0.0000000000000000     
  -5.4000000000000000E-010     0.0000000000000000     
  -5.3600000000000001E-010     0.0000000000000000     
  -5.3200000000000002E-010     0.0000000000000000     
  -5.2800000000000004E-010     0.0000000000000000     
  -5.2400000000000005E-010     0.0000000000000000     
  -5.1999999999999996E-010     0.0000000000000000     
  -5.1599999999999998E-010     0.0000000000000000     
  -5.1199999999999999E-010     0.0000000000000000     
  -5.0800000000000000E-010     0.0000000000000000     
  -5.0400000000000002E-010     0.0000000000000000     
  -5.0000000000000003E-010     0.0000000000000000     
  -4.9600000000000004E-010     0.0000000000000000     
  -4.9199999999999996E-010     0.0000000000000000     
  -4.8799999999999997E-010     0.0000000000000000     
  -4.8399999999999998E-010     0.0000000000000000     
  -4.8000000000000000E-010     0.0000000000000000     
  -4.7600000000000001E-010     0.0000000000000000     
  -4.7200000000000002E-010     0.0000000000000000     
  -4.6800000000000004E-010     0.0000000000000000     
  -4.6400000000000005E-010     0.0000000000000000     
  -4.5999999999999996E-010     0.0000000000000000     
  -4.5599999999999998E-010     0.0000000000000000     
  -4.5199999999999999E-010     0.0000000000000000     
  -4.4800000000000000E-010     0.0000000000000000     
  -4.4400000000000002E-010     0.0000000000000000     
  -4.4000000000000003E-010     0.0000000000000000     
  -4.3600000000000005E-010     0.0000000000000000     
  -4.3199999999999996E-010     0.0000000000000000     
  -4.2799999999999997E-010     0.0000000000000000     
  -4.2399999999999998E-010     0.0000000000000000     
  -4.2000000000000000E-010     0.0000000000000000     
  -4.1600000000000001E-010     0.0000000000000000     
  -4.1200000000000002E-010     0.0000000000000000     
  -4.0800000000000004E-010     0.0000000000000000     
  -4.0400000000000005E-010     0.0000000000000000     
  -3.9999999999999996E-010     0.0000000000000000     
  -3.9599999999999998E-010     0.0000000000000000     
  -3.9199999999999999E-010     0.0000000000000000     
  -3.8800000000000000E-010     0.0000000000000000     
  -3.8400000000000002E-010     0.0000000000000000     
  -3.8000000000000003E-010     0.0000000000000000     
  -3.7600000000000005E-010     0.0000000000000000     
  -3.7200000000000006E-010     0.0000000000000000     
  -3.6799999999999997E-010     0.0000000000000000     
  -3.6399999999999998E-010     0.0000000000000000     
  -3.6000000000000000E-010     0.0000000000000000     
  -3.5600000000000001E-010     0.0000000000000000     
  -3.5200000000000003E-010     0.0000000000000000     
  -3.4800000000000004E-010     0.0000000000000000     
  -3.4400000000000005E-010     0.0000000000000000     
  -3.3999999999999996E-010     0.0000000000000000     
  -3.3599999999999998E-010     0.0000000000000000     
  -3.3199999999999999E-010     0.0000000000000000     
  -3.2800000000000000E-010     0.0000000000000000     
  -3.2400000000000002E-010     0.0000000000000000     
  -3.2000000000000003E-010     0.0000000000000000     
  -3.1600000000000005E-010     0.0000000000000000     
  -3.1200000000000006E-010     0.0000000000000000     
  -3.0799999999999997E-010     0.0000000000000000     
  -3.0399999999999998E-010     0.0000000000000000     
  -3.0000000000000000E-010     0.0000000000000000     
  -2.9600000000000001E-010     0.0000000000000000     
  -2.9200000000000003E-010     0.0000000000000000     
  -2.8800000000000004E-010     0.0000000000000000     
  -2.8400000000000005E-010     0.0000000000000000     
  -2.7999999999999996E-010     0.0000000000000000     
  -2.7599999999999998E-010     0.0000000000000000     
  -2.7199999999999999E-010    -8.1445368467093459E-047
  -2.6800000000000011E-010    -1.6289073693418692E-046
  -2.6399999999999992E-010    -2.4433610540128038E-046
  -2.5999999999999993E-010    -3.2578147386837384E-046
  -2.5599999999999994E-010    -2.4433610540128038E-046
  -2.5199999999999996E-010     2.5318878760375815E-046
  -2.4799999999999997E-010     9.9504978601007705E-046
  -2.4399999999999998E-010     1.6466127337468247E-045
  -2.4000000000000000E-010     2.2981756814835724E-045
  -2.3600000000000001E-010     2.2804703170786169E-045
  -2.3200000000000003E-010     1.5209039542673424E-045
  -2.2800000000000004E-010    -5.3116093214872538E-047
  -2.2400000000000005E-010    -3.0205600868401541E-045
  -2.2000000000000007E-010    -6.7936050829338921E-045
  -2.1600000000000008E-010    -1.0956171556958143E-044
  -2.1200000000000010E-010    -1.3233807271335375E-044
  -2.0800000000000011E-010    -1.3826490945629646E-044
  -2.0399999999999992E-010    -9.2675764393906750E-045
  -1.9999999999999993E-010     1.3714114266280809E-045
  -1.9599999999999994E-010     1.9599595346965289E-044
  -1.9199999999999996E-010     4.2031595317794852E-044
  -1.8799999999999997E-010     6.6353641678164570E-044
  -1.8399999999999998E-010     8.3962087662126759E-044
  -1.8000000000000000E-010     8.5453986893825694E-044
  -1.7600000000000001E-010     5.9161680011657512E-044
  -1.7200000000000003E-010    -1.2395913236571291E-045
  -1.6800000000000004E-010    -9.9234509183677533E-044
  -1.6400000000000005E-010    -2.2451693904022345E-043
  -1.6000000000000007E-010    -3.5718814737608689E-043
  -1.5600000000000008E-010    -4.5896508562144852E-043
  -1.5200000000000010E-010    -4.7960321841635942E-043
  -1.4800000000000011E-010    -3.6502481406238048E-043
  -1.4399999999999992E-010    -7.1160914221244009E-044
  -1.3999999999999993E-010     4.1707000455927532E-043
  -1.3599999999999994E-010     1.0627611077757354E-042
  -1.3199999999999996E-010     1.7630309960454553E-042
  -1.2799999999999997E-010     2.3379234689006814E-042
  -1.2399999999999999E-010     2.5446277622789265E-042
  -1.2000000000000000E-010     2.1155089777606775E-042
  -1.1600000000000001E-010     8.2191508748162248E-043
  -1.1200000000000003E-010    -1.4369010270058142E-042
  -1.0800000000000004E-010    -4.5316672628829412E-042
  -1.0400000000000005E-010    -8.0186799843037399E-042
  -1.0000000000000007E-010    -1.1101971860117099E-041
  -9.6000000000000082E-011    -1.2674899529540528E-041
  -9.2000000000000096E-011    -1.1475496821572136E-041
  -8.8000000000000110E-011    -6.3641771317345978E-042
  -8.3999999999999917E-011     3.2838694436374355E-042
  -7.9999999999999931E-011     1.7137446233612556E-041
  -7.5999999999999944E-011     3.3508526550873700E-041
  -7.1999999999999958E-011     4.9129937061477586E-041
  -6.7999999999999972E-011     5.9266692591114311E-041
  -6.3999999999999986E-011     5.8289827359690363E-041
  -6.0000000000000000E-011     4.0780858173533135E-041
  -5.6000000000000013E-011     3.1320115782076270E-042
  -5.2000000000000027E-011    -5.4568921670058562E-041
  -4.8000000000000041E-011    -1.2674078783347679E-040
  -4.4000000000000055E-011    -2.0112264834605327E-040
  -4.0000000000000069E-011    -2.5882820496237413E-040
  -3.6000000000000082E-011    -2.7620050574696562E-040
  -3.2000000000000096E-011    -2.2883204984021308E-040
  -2.8000000000000110E-011    -9.7681178776004313E-041
  -2.3999999999999917E-011     1.2334908203670223E-040
  -1.9999999999999931E-011     4.1968047820222374E-040
  -1.5999999999999945E-011     7.5017160888727090E-040
  -1.1999999999999959E-011     1.0454081787610843E-039
  -7.9999999999999724E-012     1.2125370855397123E-039
  -3.9999999999999862E-012     1.1483484983903476E-039
   0.0000000000000000          7.6094633797466585E-040
   3.9999999999999862E-012    -1.7055477148841720E-042
   7.9999999999999724E-012    -1.1205483811847183E-039
   1.1999999999999959E-011    -2.4782210102314882E-039
   1.5999999999999945E-011    -3.8444714411836664E-039
   1.9999999999999931E-011    -4.8833127623348410E-039
   2.3999999999999917E-011    -5.1895499919719176E-039
   2.7999999999999903E-011    -4.3582468667801230E-039
   3.1999999999999889E-011    -2.0841430974293062E-039
   3.6000000000000082E-011     1.7205831596008862E-039
   4.0000000000000069E-011     6.8110533254140973E-039
   4.4000000000000055E-011     1.2525842754599638E-038
   4.8000000000000041E-011     1.7767755270589662E-038
   5.2000000000000027E-011     2.1080550037119914E-038
   5.6000000000000013E-011     2.0842900484989006E-038
   6.0000000000000000E-011     1.5581722134134355E-038
   6.3999999999999986E-011     4.3798880237877232E-039
   6.7999999999999972E-011    -1.2678687995087433E-038
   7.1999999999999958E-011    -3.4114818924760803E-038
   7.5999999999999944E-011    -5.6821978250075295E-038
   7.9999999999999931E-011    -7.6114090252177481E-038
   8.3999999999999917E-011    -8.6152913644131918E-038
   8.7999999999999903E-011    -8.0807473037109162E-038
   9.1999999999999889E-011    -5.4920821521560485E-038
   9.6000000000000082E-011    -5.8587766592290993E-039
   1.0000000000000007E-010     6.4895145559313631E-038
   1.0400000000000005E-010     1.5043420705470177E-037
   1.0800000000000004E-010     2.3781086525537252E-037
   1.1200000000000003E-010     3.0850512533757547E-037
   1.1600000000000001E-010     3.4028950303241176E-037
   1.2000000000000000E-010     3.1061573159638104E-037
   1.2399999999999999E-010     2.0136709837640621E-037
   1.2799999999999997E-010     4.4718797726233181E-039
   1.3199999999999996E-010    -2.7249561989448036E-037
   1.3599999999999994E-010    -6.0191763764124283E-037
   1.3999999999999993E-010    -9.3431258678171290E-037
   1.4399999999999992E-010    -1.2004267200495700E-036
   1.4799999999999990E-010    -1.3182460834960907E-036
   1.5199999999999989E-010    -1.2052833170527566E-036
   1.5600000000000008E-010    -7.9553885204793809E-037
   1.6000000000000007E-010    -5.9361663378908682E-038
   1.6400000000000005E-010     9.7679289521935039E-037
   1.6800000000000004E-010     2.2147671582706852E-036
   1.7200000000000003E-010     3.4779411546389961E-036
   1.7600000000000001E-010     4.5178771505864258E-036
   1.8000000000000000E-010     5.0378845730652669E-036
   1.8399999999999998E-010     4.7349046542949907E-036
   1.8799999999999997E-010     3.3579734107461139E-036
   1.9199999999999996E-010     7.7761926452025105E-037
   1.9599999999999994E-010    -2.9436030369168445E-036
   1.9999999999999993E-010    -7.4929481766401813E-036
   2.0399999999999992E-010    -1.2277548694971685E-035
   2.0799999999999990E-010    -1.6438684760704109E-035
   2.1199999999999989E-010    -1.8923261475334785E-035
   2.1600000000000008E-010    -1.8618985167416124E-035
   2.2000000000000007E-010    -1.4549680339081987E-035
   2.2400000000000005E-010    -6.1143244206563434E-036
   2.2800000000000004E-010     6.6608339375250418E-036
   2.3200000000000003E-010     2.2900960433277125E-035
   2.3600000000000001E-010     4.0745491411550242E-035
   2.4000000000000000E-010     5.7351076622630266E-035
   2.4399999999999998E-010     6.9083335306657441E-035
   2.4799999999999997E-010     7.1927060830628121E-035
   2.5199999999999996E-010     6.2113484012409958E-035
   2.5599999999999994E-010     3.6921383744370913E-035
   2.5999999999999993E-010    -4.4386838065358467E-036
   2.6399999999999992E-010    -5.9994769949278123E-035
   2.6799999999999990E-010    -1.2441308222094804E-034
   2.7199999999999989E-010    -1.8881783343240788E-034
   2.7600000000000008E-010    -2.4120883334770842E-034
   2.8000000000000007E-010    -2.6760296307982883E-034
   2.8400000000000005E-010    -2.5393361126078652E-034
   2.8800000000000004E-010    -1.8861343931438508E-034
   2.9200000000000003E-010    -6.5511716196417597E-035
   2.9600000000000001E-010     1.1306108269115418E-034
   3.0000000000000000E-010     3.3390348444631980E-034
   3.0399999999999998E-010     5.7163125842714703E-034
   3.0799999999999997E-010     7.8915824180982493E-034
   3.1199999999999996E-010     9.4044293835133449E-034
   3.1599999999999994E-010     9.7574506363301262E-034
   3.1999999999999993E-010     8.4926355122629874E-034
   3.2399999999999992E-010     5.2856293235335441E-034
   3.2799999999999990E-010     4.6908030052454875E-036
   3.3199999999999989E-010    -6.9857566977718772E-034
   3.3600000000000008E-010    -1.5182484798040255E-033
   3.4000000000000007E-010    -2.3504071938954523E-033
   3.4400000000000005E-010    -3.0550164024612017E-033
   3.4800000000000004E-010    -3.4684742718382352E-033
   3.5200000000000003E-010    -3.4241161066836287E-033
   3.5600000000000001E-010    -2.7796144388621184E-033
   3.6000000000000000E-010    -1.4487292697001307E-033
   3.6399999999999998E-010     5.6660917393378080E-034
   3.6799999999999997E-010     3.1491433094941003E-033
   3.7199999999999996E-010     6.0500165324512202E-033
   3.7599999999999994E-010     8.8892782499099314E-033
   3.7999999999999993E-010     1.1178015545885245E-032
   3.8399999999999991E-010     1.2364820584592227E-032
   3.8799999999999990E-010     1.1906185906119680E-032
   3.9199999999999989E-010     9.3564799410441793E-033
   3.9599999999999987E-010     4.4688584305035108E-033
   4.0000000000000007E-010    -2.7056386005202349E-033
   4.0400000000000005E-010    -1.1736793384047682E-032
   4.0800000000000004E-010    -2.1769357754208151E-032
   4.1200000000000002E-010    -3.1529701280244131E-032
   4.1600000000000001E-010    -3.9398739992279298E-032
   4.2000000000000000E-010    -4.3558713580914005E-032
   4.2399999999999998E-010    -4.2212523357413929E-032
   4.2799999999999997E-010    -3.3863245962580544E-032
   4.3199999999999996E-010    -1.7629365069219493E-032
   4.3599999999999994E-010     6.4405694448556849E-033
   4.3999999999999993E-010     3.7099919201034786E-032
   4.4399999999999991E-010     7.1734438880429368E-032
   4.4799999999999990E-010     1.0634345009958953E-031
   4.5199999999999989E-010     1.3571699363704953E-031
   4.5599999999999987E-010     1.5383923274464537E-031
   4.6000000000000007E-010     1.5452560244448417E-031
   4.6400000000000005E-010     1.3227068330664236E-031
   4.6800000000000004E-010     8.3248466374622681E-032
   4.7200000000000002E-010     6.3692785678807222E-033
   4.7600000000000001E-010    -9.5737773413911814E-032
   4.8000000000000000E-010    -2.1597540577762191E-031
   4.8399999999999998E-010    -3.4243498358711579E-031
   4.8799999999999997E-010    -4.5862817567157758E-031
   4.9199999999999996E-010    -5.4443352080746535E-031
   4.9599999999999994E-010    -5.7784253285908185E-031
   4.9999999999999993E-010    -5.3750579538393114E-031
   5.0399999999999991E-010    -4.0596995744156894E-031
   5.0799999999999990E-010    -1.7336805910527125E-031
   5.1199999999999989E-010     1.5881106678368245E-031
   5.1599999999999987E-010     5.7437480483940655E-031
   5.2000000000000007E-010     1.0401009073016623E-030
   5.2400000000000005E-010     1.5050800603360043E-030
   5.2800000000000004E-010     1.9023460555596789E-030
   5.3200000000000002E-010     2.1532871156763725E-030
   5.3600000000000001E-010     2.1751025462028951E-030
   5.4000000000000000E-010     1.8912196657523646E-030
   5.4399999999999998E-010     1.2441457599542098E-030
   5.4799999999999997E-010     2.0971436889511086E-031
   5.5199999999999995E-010    -1.1888456702015628E-030
   5.5599999999999994E-010    -2.8690672386765868E-030
   5.5999999999999993E-010    -4.6820200598907612E-030
   5.6399999999999991E-010    -6.4122025341113953E-030
   5.6799999999999990E-010    -7.7868398466914049E-030
   5.7199999999999989E-010    -8.4962684717156378E-030
   5.7599999999999987E-010    -8.2260452923291706E-030
   5.8000000000000007E-010    -6.6999546913340230E-030
   5.8400000000000005E-010    -3.7312730475754050E-030
   5.8800000000000004E-010     7.2235548336574224E-031
   5.9200000000000002E-010     6.5070702895175643E-030
   5.9600000000000001E-010     1.3232257397997472E-029
   6.0000000000000000E-010     2.0250626084700801E-029
   6.0399999999999998E-010     2.6668158197091787E-029
   6.0799999999999997E-010     3.1391915524319331E-029
   6.1199999999999995E-010     3.3220772374191601E-029
   6.1599999999999994E-010     3.0979673466463732E-029
   6.1999999999999993E-010     2.3692130484146424E-029
   6.2399999999999991E-010     1.0778613183437473E-029
   6.2799999999999990E-010    -7.7389124328501813E-030
   6.3199999999999989E-010    -3.1052877339187779E-029
   6.3599999999999987E-010    -5.7438352352874315E-029
   6.4000000000000006E-010    -8.4207903911731340E-029
   6.4400000000000005E-010    -1.0778567378230748E-028
   6.4800000000000004E-010    -1.2392665226782993E-028
   6.5200000000000002E-010    -1.2809482659224998E-028
   6.5600000000000001E-010    -1.1599617495454610E-028
   6.6000000000000000E-010    -8.4239975521861026E-029
   6.6399999999999978E-010    -3.1076489365845477E-029
   6.6800000000000017E-010     4.2866735602826308E-029
   6.7200000000000016E-010     1.3395025599267985E-028
   6.7600000000000015E-010     2.3510618481016224E-028
   6.8000000000000013E-010     3.3576004481200207E-028
   6.8400000000000012E-010     4.2220148429842896E-028
   6.8800000000000011E-010     4.7848552910564242E-028
   6.9200000000000009E-010     4.8789928586989765E-028
   6.9600000000000008E-010     4.3496296088487278E-028
   7.0000000000000006E-010     3.0785463068757731E-028
   7.0400000000000005E-010     1.0106034940570483E-028
   7.0800000000000004E-010    -1.8203590339747460E-028
   7.1200000000000002E-010    -5.2697972199996894E-028
   7.1600000000000001E-010    -9.0689680727909259E-028
   7.2000000000000000E-010    -1.2823778026871285E-027
   7.2399999999999998E-010    -1.6029644585900266E-027
   7.2799999999999997E-010    -1.8104987965600128E-027
   7.3199999999999995E-010    -1.8444305700805394E-027
   7.3599999999999994E-010    -1.6489518188245514E-027
   7.3999999999999993E-010    -1.1815559051860290E-027
   7.4399999999999991E-010    -4.2232709390928791E-028
   7.4799999999999990E-010     6.1702198517057331E-028
   7.5199999999999988E-010     1.8855812529168708E-027
   7.5599999999999987E-010     3.2885111694661668E-027
   7.5999999999999986E-010     4.6865355683648741E-027
   7.6399999999999984E-010     5.9008885466787033E-027
   7.6799999999999983E-010     6.7246076586699902E-027
   7.7199999999999982E-010     6.9405121430864897E-027
   7.7599999999999980E-010     6.3454632148121524E-027
   7.7999999999999979E-010     4.7796356236492415E-027
   7.8399999999999977E-010     2.1585430916727852E-027
   7.8800000000000017E-010    -1.4953607673586800E-027
   7.9200000000000016E-010    -6.0255028727762273E-027
   7.9600000000000015E-010    -1.1122947877540726E-026
   8.0000000000000013E-010    -1.6321747485372023E-026
   8.0400000000000012E-010    -2.1012117356026889E-026
   8.0800000000000010E-010    -2.4474675814631085E-026
   8.1200000000000009E-010    -2.5937296143031721E-026
   8.1600000000000008E-010    -2.4653840419991986E-026
   8.2000000000000006E-010    -2.0001240977876752E-026
   8.2400000000000005E-010    -1.1588273150431872E-026
   8.2800000000000004E-010     6.3375866873933012E-028
   8.3200000000000002E-010     1.6271029284956740E-026
   8.3600000000000001E-010     3.4412518913077936E-026
   8.3999999999999999E-010     5.3596222626604048E-026
   8.4399999999999998E-010     7.1831069376732628E-026
   8.4799999999999997E-010     8.6686796735131318E-026
   8.5199999999999995E-010     9.5459384632052761E-026
   8.5599999999999994E-010     9.5412871226194716E-026
   8.5999999999999993E-010     8.4089800482768771E-026
   8.6399999999999991E-010     5.9672717372841570E-026
   8.6799999999999990E-010     2.1368571257417077E-026
   8.7199999999999988E-010    -3.0221775044802434E-026
   8.7599999999999987E-010    -9.2795323852471992E-026
   8.7999999999999986E-010    -1.6215102181557249E-025
   8.8399999999999984E-010    -2.3215793821671148E-025
   8.8799999999999983E-010    -2.9493433270571003E-025
   8.9199999999999981E-010    -3.4127297025301555E-025
   8.9599999999999980E-010    -3.6132899884645536E-025
   8.9999999999999979E-010    -3.4556252365282290E-025
   9.0399999999999977E-010    -2.8589720028709735E-025
   9.0799999999999976E-010    -1.7702183403717607E-025
   9.1200000000000016E-010    -1.7728328603958766E-026
   9.1600000000000015E-010     1.8785342583071508E-025
   9.2000000000000013E-010     4.2928676680759331E-025
   9.2400000000000012E-010     6.8930160056427764E-025
   9.2800000000000010E-010     9.4388368659256470E-025
   9.3200000000000009E-010     1.1631300553710256E-024
   9.3600000000000008E-010     1.3129766668362699E-024
   9.4000000000000006E-010     1.3578368974851804E-024
   9.4400000000000005E-010     1.2641012996383856E-024
   9.4800000000000004E-010     1.0043424640910546E-024
   9.5200000000000002E-010     5.6195306698019688E-025
   9.5600000000000001E-010    -6.4169640567653849E-026
   9.5999999999999999E-010    -8.5538626544985220E-025
   9.6399999999999998E-010    -1.7700948263108522E-024
   9.6799999999999997E-010    -2.7421352824654647E-024
   9.7199999999999995E-010    -3.6814101041818512E-024
   9.7599999999999994E-010    -4.4772288940946207E-024