  -1.2000000000000000E-009     0.0000000000000000     
  -1.1960000000000000E-009     0.0000000000000000     
  -1.1920000000000000E-009     0.0000000000000000     
  -1.1880000000000000E-009     0.0000000000000000     
  -1.1840000000000000E-009     0.0000000000000000     
  -1.1800000000000001E-009     0.0000000000000000     
  -1.1760000000000001E-009     0.0000000000000000     
  -1.1720000000000001E-009     0.0000000000000000     
  -1.1679999999999999E-009     0.0000000000000000     
  -1.1639999999999999E-009     0.0000000000000000     
  -1.1599999999999999E-009    -2.4267733300404150E-041
  -1.1559999999999999E-009    -4.5462265791517234E-040
  -1.1520000000000000E-009    -4.4683528405922748E-039
  -1.1480000000000000E-009    -3.0616223318820784E-038
  -1.1440000000000000E-009    -1.6367859807873499E-037
  -1.1400000000000000E-009    -7.2355111314138559E-037
  -1.1360000000000000E-009    -2.7343025665461625E-036
  -1.1320000000000000E-009    -9.0112089753982154E-036
  -1.1280000000000000E-009    -2.6203795257928060E-035
  -1.1240000000000000E-009    -6.7625002106102618E-035
  -1.1200000000000001E-009    -1.5495488154322245E-034
  -1.1160000000000001E-009    -3.1333485604394619E-034
  -1.1120000000000001E-009    -5.4971386183403353E-034
  -1.1079999999999999E-009    -8.0271152780941046E-034
  -1.1039999999999999E-009    -8.6294414492767654E-034
  -1.0999999999999999E-009    -2.9818057779865639E-034
  -1.0959999999999999E-009     1.5160948376418711E-033
  -1.0920000000000000E-009     5.0834184384250977E-033
  -1.0880000000000000E-009     9.9970289678549501E-033
  -1.0840000000000000E-009     1.3656826286118595E-032
  -1.0800000000000000E-009     9.9919235855979895E-033
  -1.0760000000000000E-009    -1.0413149123384856E-032
  -1.0720000000000000E-009    -5.6393022977164986E-032
  -1.0680000000000000E-009    -1.2581231306974859E-031
  -1.0640000000000000E-009    -1.8790939857501058E-031
  -1.0600000000000001E-009    -1.6308649068246217E-031
  -1.0560000000000001E-009     8.5481258847345826E-032
  -1.0520000000000001E-009     7.2261663692725270E-031
  -1.0480000000000001E-009     1.8423230795250470E-030
  -1.0439999999999999E-009     3.2785234714794648E-030
  -1.0399999999999999E-009     4.3468030766542353E-030
  -1.0359999999999999E-009     3.6197383274227792E-030
  -1.0320000000000000E-009    -1.0531244775611761E-030
  -1.0280000000000000E-009    -1.1978097712512216E-029
  -1.0240000000000000E-009    -3.0208966120833665E-029
  -1.0200000000000000E-009    -5.3219880357925183E-029
  -1.0160000000000000E-009    -7.2094948328686608E-029
  -1.0120000000000000E-009    -6.9471912958751516E-029
  -1.0080000000000000E-009    -2.0372686058004539E-029
  -1.0040000000000000E-009     1.0140620237875716E-028
  -1.0000000000000001E-009     3.0916465580056555E-028
  -9.9600000000000008E-010     5.8151045268029429E-028
  -9.9199999999999988E-010     8.3742000249541803E-028
  -9.8799999999999990E-010     9.1883210904701851E-028
  -9.8399999999999991E-010     5.9760805289472737E-028
  -9.7999999999999992E-010    -3.7350530737734486E-028
  -9.7599999999999994E-010    -2.1512397304407513E-027
  -9.7199999999999995E-010    -4.6357497660372935E-027
  -9.6799999999999997E-010    -7.2808211984781738E-027
  -9.6399999999999998E-010    -8.9530948469503442E-027
  -9.5999999999999999E-010    -7.9510169091018924E-027
  -9.5600000000000001E-010    -2.3101081104917977E-027
  -9.5200000000000002E-010     9.5099244700532902E-027
  -9.4800000000000004E-010     2.7560691915629270E-026
  -9.4400000000000005E-010     4.9143033851325352E-026
  -9.4000000000000006E-010     6.7755171952883549E-026
  -9.3600000000000008E-010     7.2876817921554855E-026
  -9.3200000000000009E-010     5.1320057814375438E-026
  -9.2800000000000000E-010    -9.2553566691893180E-027
  -9.2400000000000001E-010    -1.1454578834593679E-025
  -9.1999999999999992E-010    -2.5627682279131060E-025
  -9.1599999999999994E-010    -4.0524971098585901E-025
  -9.1199999999999995E-010    -5.0782620980165585E-025
  -9.0799999999999997E-010    -4.8962375012066376E-025
  -9.0399999999999998E-010    -2.6986865690552116E-025
  -8.9999999999999999E-010     2.1202238721111568E-025
  -8.9600000000000001E-010     9.5973992828909630E-025
  -8.9200000000000002E-010     1.8805433851053558E-024
  -8.8800000000000004E-010     2.7557999971065630E-024
  -8.8400000000000005E-010     3.2387653806631307E-024
  -8.8000000000000006E-010     2.8972667658618618E-024
  -8.7599999999999997E-010     1.3133443423505100E-024
  -8.7199999999999999E-010    -1.7612712609460148E-024
  -8.6800000000000000E-010    -6.2152636212367839E-024
  -8.6400000000000001E-010    -1.1399054515235342E-023
  -8.5999999999999993E-010    -1.6024860327057576E-023
  -8.5599999999999994E-010    -1.8223718111549286E-023
  -8.5199999999999995E-010    -1.5827781609182584E-023
  -8.4799999999999997E-010    -6.9081816356947448E-024
  -8.4399999999999998E-010     9.4690875172781157E-024
  -8.3999999999999999E-010     3.2397200472039300E-023
  -8.3600000000000001E-010     5.8415163905803819E-023
  -8.3200000000000002E-010     8.1220604997420151E-023
  -8.2800000000000004E-010     9.2114769221968011E-023
  -8.2400000000000005E-010     8.1408750750037744E-023
  -8.2000000000000006E-010     4.0835258253687075E-023
  -8.1599999999999997E-010    -3.3274532879501499E-023
  -8.1199999999999999E-010    -1.3663273734573526E-022
  -8.0800000000000000E-010    -2.5436227481924387E-022
  -8.0400000000000002E-010    -3.6019583291954558E-022
  -7.9999999999999993E-010    -4.1857203304411486E-022
  -7.9599999999999994E-010    -3.9032722291573423E-022
  -7.9199999999999995E-010    -2.4195538144728169E-022
  -7.8799999999999997E-010     4.2612707356272087E-023
  -7.8399999999999998E-010     4.4990520414205636E-022
  -7.7999999999999999E-010     9.2766806815546577E-022
  -7.7600000000000001E-010     1.3821796240745827E-021
  -7.7200000000000002E-010     1.6854992413325730E-021
  -7.6800000000000004E-010     1.6946729415214918E-021
  -7.6400000000000005E-010     1.2825063140984720E-021
  -7.6000000000000006E-010     3.7631002937254853E-022
  -7.5600000000000008E-010    -1.0023935875305198E-021
  -7.5199999999999999E-010    -2.7070083542763013E-021
  -7.4800000000000000E-010    -4.4548733844273654E-021
  -7.4400000000000002E-010    -5.8459600474202149E-021
  -7.3999999999999993E-010    -6.4169413800661164E-021
  -7.3599999999999994E-010    -5.7293845994547670E-021
  -7.3199999999999995E-010    -3.4819397557654691E-021
  -7.2799999999999997E-010     3.7273653747710164E-022
  -7.2399999999999998E-010     5.5327881411794241E-021
  -7.2000000000000000E-010     1.1303020040805236E-020
  -7.1600000000000001E-010     1.6627684778762330E-020
  -7.1200000000000002E-010     2.0215305643687020E-020
  -7.0800000000000004E-010     2.0753246353123130E-020
  -7.0400000000000005E-010     1.7188030085197080E-020
  -6.9999999999999996E-010     9.0256551305030271E-021
  -6.9599999999999997E-010    -3.4104915604058257E-021
  -6.9199999999999999E-010    -1.8832657152738656E-020
  -6.8800000000000000E-010    -3.5012741765277701E-020
  -6.8400000000000002E-010    -4.9012780815283526E-020
  -6.8000000000000003E-010    -5.7618642838095691E-020
  -6.7600000000000004E-010    -5.7926896998817256E-020
  -6.7199999999999995E-010    -4.7989210969536664E-020
  -6.6799999999999997E-010    -2.7385684199606456E-020
  -6.6399999999999998E-010     2.4115474822930750E-021
  -6.6000000000000000E-010     3.8002258804846312E-020
  -6.5600000000000001E-010     7.4414719757229706E-020
  -6.5200000000000002E-010     1.0584125521002366E-019
  -6.4800000000000004E-010     1.2664781282137721E-019
  -6.4400000000000005E-010     1.3246949058615952E-019
  -6.3999999999999996E-010     1.2115007136243244E-019
  -6.3599999999999998E-010     9.3279824328854898E-020
  -6.3199999999999999E-010     5.2143142932044500E-020
  -6.2800000000000000E-010     3.0044326827949460E-021
  -6.2400000000000002E-010    -4.8178358363856586E-020
  -6.2000000000000003E-010    -9.6350496813904090E-020
  -6.1600000000000004E-010    -1.3886151121279763E-019
  -6.1199999999999995E-010    -1.7639363973558772E-019
  -6.0799999999999997E-010    -2.1287904128664689E-019
  -6.0399999999999998E-010    -2.5413135206292736E-019
  -6.0000000000000000E-010    -3.0520016444343021E-019
  -5.9600000000000001E-010    -3.6681611853299333E-019
  -5.9200000000000002E-010    -4.3166506820531713E-019
  -5.8800000000000004E-010    -4.8152175584136321E-019
  -5.8400000000000005E-010    -4.8639920387980536E-019
  -5.7999999999999996E-010    -4.0675349572598739E-019
  -5.7599999999999998E-010    -1.9938753070995764E-019
  -5.7199999999999999E-010     1.7296245044954928E-019
  -5.6800000000000000E-010     7.2922577870469688E-019
  -5.6400000000000002E-010     1.4565590757602779E-018
  -5.6000000000000003E-010     2.2984435584487610E-018
  -5.5600000000000004E-010     3.1473815510586682E-018
  -5.5199999999999995E-010     3.8452742890953638E-018
  -5.4799999999999997E-010     4.1939846808509124E-018
  -5.4399999999999998E-010     3.9774015181960923E-018
  -5.4000000000000000E-010     2.9945704064792867E-018
  -5.3600000000000001E-010     1.1013664952377112E-018
  -5.3200000000000002E-010    -1.7440103530168026E-018
  -5.2800000000000004E-010    -5.4383395159637604E-018
  -5.2400000000000005E-010    -9.7013933842607169E-018
  -5.1999999999999996E-010    -1.4062891631202091E-017
  -5.1599999999999998E-010    -1.7875738479074502E-017
  -5.1199999999999999E-010    -2.0360718103761679E-017
  -5.0800000000000000E-010    -2.0684364324482566E-017
  -5.0400000000000002E-010    -1.8067292164837229E-017
  -5.0000000000000003E-010    -1.1915280203499146E-017
  -4.9600000000000004E-010    -1.9603068561385120E-018
  -4.9199999999999996E-010     1.1605667479319336E-017
  -4.8799999999999997E-010     2.8024472361673129E-017
  -4.8399999999999998E-010     4.5914499444674069E-017
  -4.8000000000000000E-010     6.3282522919098224E-017
  -4.7600000000000001E-010     7.7620421349393518E-017
  -4.7200000000000002E-010     8.6095307838006501E-017
  -4.6800000000000004E-010     8.5831876245752515E-017
  -4.6400000000000005E-010     7.4273589193980770E-017
  -4.5999999999999996E-010     4.9596495387640287E-017
  -4.5599999999999998E-010     1.1136462826456807E-017
  -4.5199999999999999E-010    -4.0220009596772813E-017
  -4.4800000000000000E-010    -1.0173853406950471E-016
  -4.4400000000000002E-010    -1.6869198493992937E-016
  -4.4000000000000003E-010    -2.3442180562498796E-016
  -4.3600000000000005E-010    -2.9064665359697988E-016
  -4.3199999999999996E-010    -3.2803875246683508E-016
  -4.2799999999999997E-010    -3.3706150689552392E-016
  -4.2399999999999998E-010    -3.0902912057019431E-016
  -4.2000000000000000E-010    -2.3731489944106810E-016
  -4.1600000000000001E-010    -1.1860251993729498E-016
  -4.1200000000000002E-010     4.5952142080325994E-017
  -4.0800000000000004E-010     2.4979766841931090E-016
  -4.0400000000000005E-010     4.8045312498861060E-016
  -3.9999999999999996E-010     7.1950128288751364E-016
  -3.9599999999999998E-010     9.4321469055276898E-016
  -3.9199999999999999E-010     1.1238731446807356E-015
  -3.8800000000000000E-010     1.2317675656438408E-015
  -3.8400000000000002E-010     1.2378166506220043E-015
  -3.8000000000000003E-010     1.1166456771651383E-015
  -3.7600000000000005E-010     8.4991003057641784E-016
  -3.7200000000000006E-010     4.2958398000473479E-016
  -3.6799999999999997E-010    -1.3910190775328044E-016
  -3.6399999999999998E-010    -8.3540856670417815E-016
  -3.6000000000000000E-010    -1.6218442192724884E-015
  -3.5600000000000001E-010    -2.4442091399803417E-015
  -3.5200000000000003E-010    -3.2331390851716148E-015
  -3.4800000000000004E-010    -3.9072636547081921E-015
  -3.4400000000000005E-010    -4.3779773220614985E-015
  -3.3999999999999996E-010    -4.5556935547774393E-015
  -3.3599999999999998E-010    -4.3573143273447106E-015
  -3.3199999999999999E-010    -3.7145184636273494E-015
  -3.2800000000000000E-010    -2.5823555904609192E-015
  -3.2400000000000002E-010    -9.4753350447445633E-016
  -3.2000000000000003E-010     1.1642792181736847E-015
  -3.1600000000000005E-010     3.6828408875622537E-015
  -3.1200000000000006E-010     6.4901080275428218E-015
  -3.0799999999999997E-010     9.4200230934651360E-015
  -3.0399999999999998E-010     1.2261855578245435E-014
  -3.0000000000000000E-010     1.4767462149939751E-014
  -2.9600000000000001E-010     1.6662644201336364E-014
  -2.9200000000000003E-010     1.7662565756849485E-014
  -2.8800000000000004E-010     1.7490871998786764E-014
  -2.8400000000000005E-010     1.5901911407455834E-014
  -2.7999999999999996E-010     1.2705116574849182E-014
  -2.7599999999999998E-010     7.7903176680876674E-015
  -2.7199999999999999E-010     1.1524467988880759E-015
  -2.6800000000000011E-010    -7.0861398956573274E-015
  -2.6399999999999992E-010    -1.6657730280233607E-014
  -2.5999999999999993E-010    -2.7137799568457350E-014
  -2.5599999999999994E-010    -3.7942173016401081E-014
  -2.5199999999999996E-010    -4.8334781650569220E-014
  -2.4799999999999997E-010    -5.7447727994034296E-014
  -2.4399999999999998E-010    -6.4314919088515505E-014
  -2.4000000000000000E-010    -6.7919848627312382E-014
  -2.3600000000000001E-010    -6.7257275628537523E-014
  -2.3200000000000003E-010    -6.1407498638447897E-014
  -2.2800000000000004E-010    -4.9620870896067578E-014
  -2.2400000000000005E-010    -3.1408943861753240E-014
  -2.2000000000000007E-010    -6.6374377709681497E-015
  -2.1600000000000008E-010     2.4384693744631923E-014
  -2.1200000000000010E-010     6.0826733853065379E-014
  -2.0800000000000011E-010     1.0127508566110403E-013
  -2.0399999999999992E-010     1.4369655396996877E-013
  -1.9999999999999993E-010     1.8543207267764167E-013
  -1.9599999999999994E-010     2.2322603623549538E-013
  -1.9199999999999996E-010     2.5329411395927678E-013
  -1.8799999999999997E-010     2.7142994018203408E-013
  -1.8399999999999998E-010     2.7314891991144891E-013
  -1.8000000000000000E-010     2.5386289218179515E-013
  -1.7600000000000001E-010     2.0907744126969171E-013
  -1.7200000000000003E-010     1.3460002715574856E-013
  -1.6800000000000004E-010     2.6744781639876293E-014
  -1.6400000000000005E-010    -1.1748162356437175E-013
  -1.6000000000000007E-010    -3.0022931551357996E-013
  -1.5600000000000008E-010    -5.2270538555645288E-013
  -1.5200000000000010E-010    -7.8513847745116330E-013
  -1.4800000000000011E-010    -1.0868167846861488E-012
  -1.4399999999999992E-010    -1.4262068470105281E-012
  -1.3999999999999993E-010    -1.8011509450236071E-012
  -1.3599999999999994E-010    -2.2091382223850658E-012
  -1.3199999999999996E-010    -2.6476355697254191E-012
  -1.2799999999999997E-010    -3.1144617944643190E-012
  -1.2399999999999999E-010    -3.6081804487166268E-012
  -1.2000000000000000E-010    -4.1284846657946314E-012
  -1.1600000000000001E-010    -4.6765468359742525E-012
  -1.1200000000000003E-010    -5.2553047130118260E-012
  -1.0800000000000004E-010    -5.8696632235927050E-012
  -1.0400000000000005E-010    -6.5265904676363601E-012
  -1.0000000000000007E-010    -7.2350962354550116E-012
  -9.6000000000000082E-011    -8.0060987353791239E-012
  -9.2000000000000096E-011    -8.8521741088704799E-012
  -8.8000000000000110E-011    -9.7872213956841847E-012
  -8.3999999999999917E-011    -1.0826059148494138E-011
  -7.9999999999999931E-011    -1.1983985042806543E-011
  -7.5999999999999944E-011    -1.3276343927896984E-011
  -7.1999999999999958E-011    -1.4718138998489863E-011
  -6.7999999999999972E-011    -1.6323713047214461E-011
  -6.3999999999999986E-011    -1.8106549450765710E-011
  -6.0000000000000000E-011    -2.0079186836985755E-011
  -5.6000000000000013E-011    -2.2253282536727080E-011
  -5.2000000000000027E-011    -2.4639813475087017E-011
  -4.8000000000000041E-011    -2.7249396394561556E-011
  -4.4000000000000055E-011    -3.0092695256442392E-011
  -4.0000000000000069E-011    -3.3180909470533882E-011
  -3.6000000000000082E-011    -3.6526263846471062E-011
  -3.2000000000000096E-011    -4.0142487638428341E-011
  -2.8000000000000110E-011    -4.4045225783593159E-011
  -2.3999999999999917E-011    -4.8252359862161867E-011
  -1.9999999999999931E-011    -5.2784210110933810E-011
  -1.5999999999999945E-011    -5.7663624560537633E-011
  -1.1999999999999959E-011    -6.2915940382338941E-011
  -7.9999999999999724E-012    -6.8568848139270690E-011
  -3.9999999999999862E-012    -7.4652236589971185E-011
   0.0000000000000000         -8.1197973742691959E-011
   3.9999999999999862E-012    -8.8239777191651561E-011
   7.9999999999999724E-012    -9.5813132210665300E-011
   1.1999999999999959E-011    -1.0395537328484888E-010
   1.5999999999999945E-011    -1.1270592964853813E-010
   1.9999999999999931E-011    -1.2210670854777660E-010
   2.3999999999999917E-011    -1.3220267688395145E-010
   2.7999999999999903E-011    -1.4304261858219851E-010
   3.1999999999999889E-011    -1.5467985436333266E-010
   3.6000000000000082E-011    -1.6717310273498807E-010
   4.0000000000000069E-011    -1.8058723192476332E-010
   4.4000000000000055E-011    -1.9499383738838728E-010
   4.8000000000000041E-011    -2.1047164398560384E-010
   5.2000000000000027E-011    -2.2710663980281248E-010
   5.6000000000000013E-011    -2.4499189150248196E-010
   6.0000000000000000E-011    -2.6422700589945554E-010
   6.3999999999999986E-011    -2.8491730696364449E-010
   6.7999999999999972E-011    -3.0717293731786066E-010
   7.1999999999999958E-011    -3.3110759809088521E-010
   7.5999999999999944E-011    -3.5683756559907552E-010
   7.9999999999999931E-011    -3.8448064553270238E-010
   8.3999999999999917E-011    -4.1415551027598199E-010
   8.7999999999999903E-011    -4.4598146231169853E-010
   9.1999999999999889E-011    -4.8007868993422448E-010
   9.6000000000000082E-011    -5.1656902845243123E-010
   1.0000000000000007E-010    -5.5557766221677019E-010
   1.0400000000000005E-010    -5.9723478951792457E-010
   1.0800000000000004E-010    -6.4167847054194279E-010
   1.1200000000000003E-010    -6.8905720024970870E-010
   1.1600000000000001E-010    -7.3953284462313805E-010
   1.2000000000000000E-010    -7.9328356960197098E-010
   1.2399999999999999E-010    -8.5050623140451354E-010
   1.2799999999999997E-010    -9.1141858474108207E-010
   1.3199999999999996E-010    -9.7626010805059500E-010
   1.3599999999999994E-010    -1.0452929749952747E-009
   1.3999999999999993E-010    -1.1188010665620334E-009
   1.4399999999999992E-010    -1.1970892518046773E-009
   1.4799999999999990E-010    -1.2804809422581122E-009
   1.5199999999999989E-010    -1.3693157329874250E-009
   1.5600000000000008E-010    -1.4639464205124134E-009
   1.6000000000000007E-010    -1.5647364837286427E-009
   1.6400000000000005E-010    -1.6720574063824575E-009
   1.6800000000000004E-010    -1.7862869092321077E-009
   1.7200000000000003E-010    -1.9078076519185134E-009
   1.7600000000000001E-010    -2.0370084248866019E-009
   1.8000000000000000E-010    -2.1742849326749399E-009
   1.8399999999999998E-010    -2.3200422098570668E-009
   1.8799999999999997E-010    -2.4746993589019494E-009
   1.9199999999999996E-010    -2.6386931901445672E-009
   1.9599999999999994E-010    -2.8124838703837327E-009
   1.9999999999999993E-010    -2.9965605898358983E-009
   2.0399999999999992E-010    -3.1914454056517553E-009
   2.0799999999999990E-010    -3.3976988409737489E-009
   2.1199999999999989E-010    -3.6159225106743398E-009
   2.1600000000000008E-010    -3.8467612045225683E-009
   2.2000000000000007E-010    -4.0909021608238249E-009
   2.2400000000000005E-010    -4.3490757338041079E-009
   2.2800000000000004E-010    -4.6220502647996767E-009
   2.3200000000000003E-010    -4.9106308615705949E-009
   2.3600000000000001E-010    -5.2156523822889069E-009
   2.4000000000000000E-010    -5.5379757236581714E-009
   2.4399999999999998E-010    -5.8784823530991691E-009
   2.4799999999999997E-010    -6.2380710966513509E-009
   2.5199999999999996E-010    -6.6176548743216032E-009
   2.5599999999999994E-010    -7.0181593334410873E-009
   2.5999999999999993E-010    -7.4405249301620849E-009
   2.6399999999999992E-010    -7.8857101254357001E-009
   2.6799999999999990E-010    -8.3546933194809249E-009
   2.7199999999999989E-010    -8.8484842321697850E-009
   2.7600000000000008E-010    -9.3681266398805120E-009
   2.8000000000000007E-010    -9.9147117474446833E-009
   2.8400000000000005E-010    -1.0489381945767966E-008
   2.8800000000000004E-010    -1.1093340830468028E-008
   2.9200000000000003E-010    -1.1727858812182248E-008
   2.9600000000000001E-010    -1.2394277262398670E-008
   3.0000000000000000E-010    -1.3094009105112525E-008
   3.0399999999999998E-010    -1.3828539474008081E-008
   3.0799999999999997E-010    -1.4599422744497057E-008
   3.1199999999999996E-010    -1.5408274552354860E-008
   3.1599999999999994E-010    -1.6256766234415081E-008
   3.1999999999999993E-010    -1.7146618559839298E-008
   3.2399999999999992E-010    -1.8079588415322993E-008
   3.2799999999999990E-010    -1.9057462310776128E-008
   3.3199999999999989E-010    -2.0082051451570496E-008
   3.3600000000000008E-010    -2.1155181650292110E-008
   3.4000000000000007E-010    -2.2278694172638204E-008
   3.4400000000000005E-010    -2.3454444822948189E-008
   3.4800000000000004E-010    -2.4684304100389139E-008
   3.5200000000000003E-010    -2.5970168128338972E-008
   3.5600000000000001E-010    -2.7313953230084884E-008
   3.6000000000000000E-010    -2.8717620771273200E-008
   3.6399999999999998E-010    -3.0183167390884943E-008
   3.6799999999999997E-010    -3.1712641297612671E-008
   3.7199999999999996E-010    -3.3308165462525444E-008
   3.7599999999999994E-010    -3.4971915124652075E-008
   3.7999999999999993E-010    -3.6706140686681897E-008
   3.8399999999999991E-010    -3.8513160753721369E-008
   3.8799999999999990E-010    -4.0395357562323697E-008
   3.9199999999999989E-010    -4.2355180836764283E-008
   3.9599999999999987E-010    -4.4395136564440606E-008
   4.0000000000000007E-010    -4.6517775287796713E-008
   4.0400000000000005E-010    -4.8725684375874967E-008
   4.0800000000000004E-010    -5.1021482401689889E-008
   4.1200000000000002E-010    -5.3407801886987204E-008
   4.1600000000000001E-010    -5.5887290932495894E-008
   4.2000000000000000E-010    -5.8462613914888410E-008
   4.2399999999999998E-010    -6.1136429798031939E-008
   4.2799999999999997E-010    -6.3911393842631822E-008
   4.3199999999999996E-010    -6.6790178565809170E-008
   4.3599999999999994E-010    -6.9775445674695783E-008
   4.3999999999999993E-010    -7.2869882842463799E-008
   4.4399999999999991E-010    -7.6076179668611029E-008
   4.4799999999999990E-010    -7.9397038697947113E-008
   4.5199999999999989E-010    -8.2835176215291943E-008
   4.5599999999999987E-010    -8.6393313299390183E-008
   4.6000000000000007E-010    -9.0074188850637122E-008
   4.6400000000000005E-010    -9.3880532245619585E-008
   4.6800000000000004E-010    -9.7815064594282882E-008
   4.7200000000000002E-010    -1.0188048487168206E-007
   4.7600000000000001E-010    -1.0607946543276975E-007
   4.8000000000000000E-010    -1.1041461328654174E-007
   4.8399999999999998E-010    -1.1488848310266695E-007
   4.8799999999999997E-010    -1.1950356655689674E-007
   4.9199999999999996E-010    -1.2426225642968674E-007
   4.9599999999999994E-010    -1.2916690137220393E-007
   4.9999999999999993E-010    -1.3421971291219793E-007
   5.0399999999999991E-010    -1.3942285496900748E-007
   5.0799999999999990E-010    -1.4477839646077246E-007
   5.1199999999999989E-010    -1.5028832085626137E-007
   5.1599999999999987E-010    -1.5595457042328695E-007
   5.2000000000000007E-010    -1.6177899851281093E-007
   5.2400000000000005E-010    -1.6776340386840811E-007
   5.2800000000000004E-010    -1.7390952900684788E-007
   5.3200000000000002E-010    -1.8021908129029662E-007
   5.3600000000000001E-010    -1.8669369342650408E-007
   5.4000000000000000E-010    -1.9333489301442816E-007
   5.4399999999999998E-010    -2.0014415145552814E-007
   5.4799999999999997E-010    -2.0712281603763350E-007
   5.5199999999999995E-010    -2.1427213983248675E-007
   5.5599999999999994E-010    -2.2159317178591214E-007
   5.5999999999999993E-010    -2.2908682088768640E-007
   5.6399999999999991E-010    -2.3675371890494654E-007
   5.6799999999999990E-010    -2.4459437027950940E-007
   5.7199999999999989E-010    -2.5260899631414154E-007
   5.7599999999999987E-010    -2.6079749871024754E-007
   5.8000000000000007E-010    -2.6915962499028143E-007
   5.8400000000000005E-010    -2.7769474225291058E-007
   5.8800000000000004E-010    -2.8640206029378864E-007
   5.9200000000000002E-010    -2.9528051366615159E-007
   5.9600000000000001E-010    -3.0432879861291522E-007
   6.0000000000000000E-010    -3.1354540594978361E-007
   6.0399999999999998E-010    -3.2292858157456620E-007
   6.0799999999999997E-010    -3.3247640964892694E-007
   6.1199999999999995E-010    -3.4218681717918613E-007
   6.1599999999999994E-010    -3.5205753165684174E-007
   6.1999999999999993E-010    -3.6208615082636168E-007
   6.2399999999999991E-010    -3.7227008637676696E-007
   6.2799999999999990E-010    -3.8260650029007000E-007
   6.3199999999999989E-010    -3.9309238760756372E-007
   6.3599999999999987E-010    -4.0372449019470932E-007
   6.4000000000000006E-010    -4.1449934682007286E-007
   6.4400000000000005E-010    -4.2541314144849517E-007
   6.4800000000000004E-010    -4.3646174035024674E-007
   6.5200000000000002E-010    -4.4764075595663476E-007
   6.5600000000000001E-010    -4.5894536340417625E-007
   6.6000000000000000E-010    -4.7037047116717234E-007
   6.6399999999999978E-010    -4.8191048364666128E-007
   6.6800000000000017E-010    -4.9355957275509347E-007
   6.7200000000000016E-010    -5.0531143541104744E-007
   6.7600000000000015E-010    -5.1715954113875044E-007
   6.8000000000000013E-010    -5.2909702327349026E-007
   6.8400000000000012E-010    -5.4111671091162635E-007
   6.8800000000000011E-010    -5.5321116260210055E-007
   6.9200000000000009E-010    -5.6537264579250700E-007
   6.9600000000000008E-010    -5.7759324957979284E-007
   7.0000000000000006E-010    -5.8986494997520287E-007
   7.0400000000000005E-010    -6.0217936637718148E-007
   7.0800000000000004E-010    -6.1452808899792163E-007
   7.1200000000000002E-010    -6.2690246320267701E-007
   7.1600000000000001E-010    -6.3929365537739841E-007
   7.2000000000000000E-010    -6.5169258410682804E-007
   7.2399999999999998E-010    -6.6409004907051320E-007
   7.2799999999999997E-010    -6.7647672391027704E-007
   7.3199999999999995E-010    -6.8884283751251310E-007
   7.3599999999999994E-010    -7.0117851343557826E-007
   7.3999999999999993E-010    -7.1347364069253797E-007
   7.4399999999999991E-010    -7.2571782687789424E-007
   7.4799999999999990E-010    -7.3790038231650537E-007
   7.5199999999999988E-010    -7.5001042301316737E-007
   7.5599999999999987E-010    -7.6203683519526181E-007
   7.5999999999999986E-010    -7.7396831640794469E-007
   7.6399999999999984E-010    -7.8579330155260642E-007
   7.6799999999999983E-010    -7.9750008557268975E-007
   7.7199999999999982E-010    -8.0907694856274353E-007
   7.7599999999999980E-010    -8.2051193933774287E-007
   7.7999999999999979E-010    -8.3179308769124722E-007
   7.8399999999999977E-010    -8.4290844550277212E-007
   7.8800000000000017E-010    -8.5384599192454372E-007
   7.9200000000000016E-010    -8.6459379008124282E-007
   7.9600000000000015E-010    -8.7513997256874159E-007
   8.0000000000000013E-010    -8.8547274405850293E-007
   8.0400000000000012E-010    -8.9558033637622025E-007
   8.0800000000000010E-010    -9.0545109833634610E-007
   8.1200000000000009E-010    -9.1507360027304349E-007
   8.1600000000000008E-010    -9.2443638572068120E-007
   8.2000000000000006E-010    -9.3352823383515296E-007
   8.2400000000000005E-010    -9.4233782545611703E-007
   8.2800000000000004E-010    -9.5085415892439291E-007
   8.3200000000000002E-010    -9.5906638498895912E-007
   8.3600000000000001E-010    -9.6696356845584539E-007
   8.3999999999999999E-010    -9.7453519123220012E-007
   8.4399999999999998E-010    -9.8177048404611601E-007
   8.4799999999999997E-010    -9.8865910159612033E-007
   8.5199999999999995E-010    -9.9519092092512209E-007
   8.5599999999999994E-010    -1.0013560073047024E-006
   8.5999999999999993E-010    -1.0071443877062453E-006
   8.6399999999999991E-010    -1.0125465953275277E-006
   8.6799999999999990E-010    -1.0175532731961036E-006
   8.7199999999999988E-010    -1.0221556496544864E-006
   8.7599999999999987E-010    -1.0263451407544337E-006
   8.7999999999999986E-010    -1.0301134780455999E-006
   8.8399999999999984E-010    -1.0334528891707703E-006
   8.8799999999999983E-010    -1.0363560271820267E-006
   8.9199999999999981E-010    -1.0388160394960515E-006
   8.9599999999999980E-010    -1.0408265062529449E-006
   8.9999999999999979E-010    -1.0423816597161492E-006
   9.0399999999999977E-010    -1.0434759959529698E-006
   9.0799999999999976E-010    -1.0441045710796724E-006
   9.1200000000000016E-010    -1.0442631544908599E-006
   9.1600000000000015E-010    -1.0439478142580029E-006
   9.2000000000000013E-010    -1.0431552074395909E-006
   9.2400000000000012E-010    -1.0418823067735589E-006
   9.2800000000000010E-010    -1.0401268297622710E-006
   9.3200000000000009E-010    -1.0378867651823205E-006
   9.3600000000000008E-010    -1.0351605556382249E-006
   9.4000000000000006E-010    -1.0319471030514629E-006
   9.4400000000000005E-010    -1.0282458710278181E-006
   9.4800000000000004E-010    -1.0240567678021034E-006
   9.5200000000000002E-010    -1.0193801261426434E-006
   9.5600000000000001E-010    -1.0142166520802839E-006
   9.5999999999999999E-010    -1.0085678986731542E-006
   9.6399999999999998E-010    -1.0024356100111556E-006
   9.6799999999999997E-010    -9.9582218716564891E-007
   9.7199999999999995E-010    -9.8873053413246829E-007
   9.7599999999999994E-010    -9.8116429022465778E-007