  -1.2000000000000000E-009     0.0000000000000000     
  -1.1960000000000000E-009     0.0000000000000000     
  -1.1920000000000000E-009     0.0000000000000000     
  -1.1880000000000000E-009     0.0000000000000000     
  -1.1840000000000000E-009     0.0000000000000000     
  -1.1800000000000001E-009     0.0000000000000000     
  -1.1760000000000001E-009     0.0000000000000000     
  -1.1720000000000001E-009     0.0000000000000000     
  -1.1679999999999999E-009     0.0000000000000000     
  -1.1639999999999999E-009     0.0000000000000000     
  -1.1599999999999999E-009     0.0000000000000000     
  -1.1559999999999999E-009     0.0000000000000000     
  -1.1520000000000000E-009     0.0000000000000000     
  -1.1480000000000000E-009     0.0000000000000000     
  -1.1440000000000000E-009     0.0000000000000000     
  -1.1400000000000000E-009     0.0000000000000000     
  -1.1360000000000000E-009     0.0000000000000000     
  -1.1320000000000000E-009     0.0000000000000000     
  -1.1280000000000000E-009     0.0000000000000000     
  -1.1240000000000000E-009     0.0000000000000000     
  -1.1200000000000001E-009     0.0000000000000000     
  -1.1160000000000001E-009     0.0000000000000000     
  -1.1120000000000001E-009     0.0000000000000000     
  -1.1079999999999999E-009     0.0000000000000000     
  -1.1039999999999999E-009     0.0000000000000000     
  -1.0999999999999999E-009     0.0000000000000000     
  -1.0959999999999999E-009     0.0000000000000000     
  -1.0920000000000000E-009     0.0000000000000000     
  -1.0880000000000000E-009     0.0000000000000000     
  -1.0840000000000000E-009     0.0000000000000000     
  -1.0800000000000000E-009     0.0000000000000000     
  -1.0760000000000000E-009     0.0000000000000000     
  -1.0720000000000000E-009     0.0000000000000000     
  -1.0680000000000000E-009     0.0000000000000000     
  -1.0640000000000000E-009     0.0000000000000000     
  -1.0600000000000001E-009     0.0000000000000000     
  -1.0560000000000001E-009     0.0000000000000000     
  -1.0520000000000001E-009     0.0000000000000000     
  -1.0480000000000001E-009     0.0000000000000000     
  -1.0439999999999999E-009     0.0000000000000000     
  -1.0399999999999999E-009     0.0000000000000000     
  -1.0359999999999999E-009     0.0000000000000000     
  -1.0320000000000000E-009     0.0000000000000000     
  -1.0280000000000000E-009     0.0000000000000000     
  -1.0240000000000000E-009     0.0000000000000000     
  -1.0200000000000000E-009     0.0000000000000000     
  -1.0160000000000000E-009     0.0000000000000000     
  -1.0120000000000000E-009     0.0000000000000000     
  -1.0080000000000000E-009     0.0000000000000000     
  -1.0040000000000000E-009     0.0000000000000000     
  -1.0000000000000001E-009     0.0000000000000000     
  -9.9600000000000008E-010     0.0000000000000000     
  -9.9199999999999988E-010     0.0000000000000000     
  -9.8799999999999990E-010     0.0000000000000000     
  -9.8399999999999991E-010     0.0000000000000000     
  -9.7999999999999992E-010     0.0000000000000000     
  -9.7599999999999994E-010     0.0000000000000000     
  -9.7199999999999995E-010     0.0000000000000000     
  -9.6799999999999997E-010     0.0000000000000000     
  -9.6399999999999998E-010     0.0000000000000000     
  -9.5999999999999999E-010     0.0000000000000000     
  -9.5600000000000001E-010     0.0000000000000000     
  -9.5200000000000002E-010     0.0000000000000000     
  -9.4800000000000004E-010     0.0000000000000000     
  -9.4400000000000005E-010     0.0000000000000000     
  -9.4000000000000006E-010     0.0000000000000000     
  -9.3600000000000008E-010     0.0000000000000000     
  -9.3200000000000009E-010     0.0000000000000000     
  -9.2800000000000000E-010     0.0000000000000000     
  -9.2400000000000001E-010     0.0000000000000000     
  -9.1999999999999992E-010     0.0000000000000000     
  -9.1599999999999994E-010     0.0000000000000000     
  -9.1199999999999995E-010     0.0000000000000000     
  -9.0799999999999997E-010     0.0000000000000000     
  -9.0399999999999998E-010     0.0000000000000000     
  -8.9999999999999999E-010     0.0000000000000000     
  -8.9600000000000001E-010     0.0000000000000000     
  -8.9200000000000002E-010     0.0000000000000000     
  -8.8800000000000004E-010     0.0000000000000000     
  -8.8400000000000005E-010     0.0000000000000000     
  -8.8000000000000006E-010     0.0000000000000000     
  -8.7599999999999997E-010     0.0000000000000000     
  -8.7199999999999999E-010     0.0000000000000000     
  -8.6800000000000000E-010     0.0000000000000000     
  -8.6400000000000001E-010     0.0000000000000000     
  -8.5999999999999993E-010     0.0000000000000000     
  -8.5599999999999994E-010     0.0000000000000000     
  -8.5199999999999995E-010     0.0000000000000000     
  -8.4799999999999997E-010     0.0000000000000000     
  -8.4399999999999998E-010     0.0000000000000000     
  -8.3999999999999999E-010     0.0000000000000000     
  -8.3600000000000001E-010     0.0000000000000000     
  -8.3200000000000002E-010     0.0000000000000000     
  -8.2800000000000004E-010     0.0000000000000000     
  -8.2400000000000005E-010     0.0000000000000000     
  -8.2000000000000006E-010     0.0000000000000000     
  -8.1599999999999997E-010     0.0000000000000000     
  -8.1199999999999999E-010     0.0000000000000000     
  -8.0800000000000000E-010     0.0000000000000000     
  -8.0400000000000002E-010     0.0000000000000000     
  -7.9999999999999993E-010     0.0000000000000000     
  -7.9599999999999994E-010     0.0000000000000000     
  -7.9199999999999995E-010     0.0000000000000000     
  -7.8799999999999997E-010     0.0000000000000000     
  -7.8399999999999998E-010     0.0000000000000000     
  -7.7999999999999999E-010     0.0000000000000000     
  -7.7600000000000001E-010     0.0000000000000000     
  -7.7200000000000002E-010     0.0000000000000000     
  -7.6800000000000004E-010     0.0000000000000000     
  -7.6400000000000005E-010     0.0000000000000000     
  -7.6000000000000006E-010     0.0000000000000000     
  -7.5600000000000008E-010     0.0000000000000000     
  -7.5199999999999999E-010     0.0000000000000000     
  -7.4800000000000000E-010     0.0000000000000000     
  -7.4400000000000002E-010     0.0000000000000000     
  -7.3999999999999993E-010     0.0000000000000000     
  -7.3599999999999994E-010     0.0000000000000000     
  -7.3199999999999995E-010     0.0000000000000000     
  -7.2799999999999997E-010     0.0000000000000000     
  -7.2399999999999998E-010     0.0000000000000000     
  -7.2000000000000000E-010     0.0000000000000000     
  -7.1600000000000001E-010     0.0000000000000000     
  -7.1200000000000002E-010     0.0000000000000000     
  -7.0800000000000004E-010     0.0000000000000000     
  -7.0400000000000005E-010     0.0000000000000000     
  -6.9999999999999996E-010     0.0000000000000000     
  -6.9599999999999997E-010     0.0000000000000000     
  -6.9199999999999999E-010     0.0000000000000000     
  -6.8800000000000000E-010     0.0000000000000000     
  -6.8400000000000002E-010     0.0000000000000000     
  -6.8000000000000003E-010     0.0000000000000000     
  -6.7600000000000004E-010     0.0000000000000000     
  -6.7199999999999995E-010     0.0000000000000000     
  -6.6799999999999997E-010     0.0000000000000000     
  -6.6399999999999998E-010     0.0000000000000000     
  -6.6000000000000000E-010     0.0000000000000000     
  -6.5600000000000001E-010     0.0000000000000000     
  -6.5200000000000002E-010     0.0000000000000000     
  -6.4800000000000004E-010     0.0000000000000000     
  -6.4400000000000005E-010     0.0000000000000000     
  -6.3999999999999996E-010     0.0000000000000000     
  -6.3599999999999998E-010     0.0000000000000000     
  -6.3199999999999999E-010     0.0000000000000000     
  -6.2800000000000000E-010     0.0000000000000000     
  -6.2400000000000002E-010     0.0000000000000000     
  -6.2000000000000003E-010     0.0000000000000000     
  -6.1600000000000004E-010     0.0000000000000000     
  -6.1199999999999995E-010     0.0000000000000000     
  -6.0799999999999997E-010     0.0000000000000000     
  -6.0399999999999998E-010     0.0000000000000000     
  -6.0000000000000000E-010     0.0000000000000000     
  -5.9600000000000001E-010     0.0000000000000000     
  -5.9200000000000002E-010     0.0000000000000000     
  -5.8800000000000004E-010     0.0000000000000000     
  -5.8400000000000005E-010     0.0000000000000000     
  -5.7999999999999996E-010     0.0000000000000000     
  -5.7599999999999998E-010     0.0000000000000000     
  -5.7199999999999999E-010     0.0000000000000000     
  -5.6800000000000000E-010     0.0000000000000000     
  -5.6400000000000002E-010     0.0000000000000000     
  -5.6000000000000003E-010     0.0000000000000000     
  -5.5600000000000004E-010     0.0000000000000000     
  -5.5199999999999995E-010     0.0000000000000000     
  -5.4799999999999997E-010     0.0000000000000000     
  -5.4399999999999998E-010     0.0000000000000000     
  -5.4000000000000000E-010     0.0000000000000000     
  -5.3600000000000001E-010     0.0000000000000000     
  -5.3200000000000002E-010     0.0000000000000000     
  -5.2800000000000004E-010     0.0000000000000000     
  -5.2400000000000005E-010     0.0000000000000000     
  -5.1999999999999996E-010     0.0000000000000000     
  -5.1599999999999998E-010     0.0000000000000000     
  -5.1199999999999999E-010     0.0000000000000000     
  -5.0800000000000000E-010     0.0000000000000000     
  -5.0400000000000002E-010     0.0000000000000000     
  -5.0000000000000003E-010     0.0000000000000000     
  -4.9600000000000004E-010     0.0000000000000000     
  -4.9199999999999996E-010     0.0000000000000000     
  -4.8799999999999997E-010     0.0000000000000000     
  -4.8399999999999998E-010     0.0000000000000000     
  -4.8000000000000000E-010     0.0000000000000000     
  -4.7600000000000001E-010     0.0000000000000000     
  -4.7200000000000002E-010     0.0000000000000000     
  -4.6800000000000004E-010     0.0000000000000000     
  -4.6400000000000005E-010     0.0000000000000000     
  -4.5999999999999996E-010     0.0000000000000000     
  -4.5599999999999998E-010     0.0000000000000000     
  -4.5199999999999999E-010     0.0000000000000000     
  -4.4800000000000000E-010     0.0000000000000000     
  -4.4400000000000002E-010     0.0000000000000000     
  -4.4000000000000003E-010     0.0000000000000000     
  -4.3600000000000005E-010     0.0000000000000000     
  -4.3199999999999996E-010     0.0000000000000000     
  -4.2799999999999997E-010     0.0000000000000000     
  -4.2399999999999998E-010     0.0000000000000000     
  -4.2000000000000000E-010     0.0000000000000000     
  -4.1600000000000001E-010     0.0000000000000000     
  -4.1200000000000002E-010     0.0000000000000000     
  -4.0800000000000004E-010     0.0000000000000000     
  -4.0400000000000005E-010     0.0000000000000000     
  -3.9999999999999996E-010     0.0000000000000000     
  -3.9599999999999998E-010     0.0000000000000000     
  -3.9199999999999999E-010     0.0000000000000000     
  -3.8800000000000000E-010     0.0000000000000000     
  -3.8400000000000002E-010     0.0000000000000000     
  -3.8000000000000003E-010     0.0000000000000000     
  -3.7600000000000005E-010     0.0000000000000000     
  -3.7200000000000006E-010     0.0000000000000000     
  -3.6799999999999997E-010     0.0000000000000000     
  -3.6399999999999998E-010     0.0000000000000000     
  -3.6000000000000000E-010     0.0000000000000000     
  -3.5600000000000001E-010     0.0000000000000000     
  -3.5200000000000003E-010     0.0000000000000000     
  -3.4800000000000004E-010     0.0000000000000000     
  -3.4400000000000005E-010     0.0000000000000000     
  -3.3999999999999996E-010     0.0000000000000000     
  -3.3599999999999998E-010     0.0000000000000000     
  -3.3199999999999999E-010     0.0000000000000000     
  -3.2800000000000000E-010     0.0000000000000000     
  -3.2400000000000002E-010     0.0000000000000000     
  -3.2000000000000003E-010     0.0000000000000000     
  -3.1600000000000005E-010     0.0000000000000000     
  -3.1200000000000006E-010     0.0000000000000000     
  -3.0799999999999997E-010     0.0000000000000000     
  -3.0399999999999998E-010     0.0000000000000000     
  -3.0000000000000000E-010     0.0000000000000000     
  -2.9600000000000001E-010     0.0000000000000000     
  -2.9200000000000003E-010     0.0000000000000000     
  -2.8800000000000004E-010     0.0000000000000000     
  -2.8400000000000005E-010     0.0000000000000000     
  -2.7999999999999996E-010     0.0000000000000000     
  -2.7599999999999998E-010     0.0000000000000000     
  -2.7199999999999999E-010    -8.1445368467093459E-047
  -2.6800000000000011E-010    -1.6289073693418692E-046
  -2.6399999999999992E-010    -2.4433610540128038E-046
  -2.5999999999999993E-010    -3.2578147386837384E-046
  -2.5599999999999994E-010    -2.4433610540128038E-046
  -2.5199999999999996E-010     2.5318878760375815E-046
  -2.4799999999999997E-010     9.9504978601007705E-046
  -2.4399999999999998E-010     1.6466127337468247E-045
  -2.4000000000000000E-010     2.2981756814835724E-045
  -2.3600000000000001E-010     2.2804703170786169E-045
  -2.3200000000000003E-010     1.5209039542673424E-045
  -2.2800000000000004E-010    -5.3116093214854803E-047
  -2.2400000000000005E-010    -3.0205600868401186E-045
  -2.2000000000000007E-010    -6.8750504514009333E-045
  -2.1600000000000008E-010    -1.1037616925425165E-044
  -2.1200000000000010E-010    -1.3315252639802396E-044
  -2.0800000000000011E-010    -1.3907936314096702E-044
  -2.0399999999999992E-010    -9.4304671763248992E-045
  -1.9999999999999993E-010     1.5431548457646111E-045
  -1.9599999999999994E-010     2.0024527553705448E-044
  -1.9199999999999996E-010     4.2456527524534896E-044
  -1.8799999999999997E-010     6.6778573884904595E-044
  -1.8399999999999998E-010     8.4387019868866923E-044
  -1.8000000000000000E-010     8.5960364469033260E-044
  -1.7600000000000001E-010     5.9668057586865596E-044
  -1.7200000000000003E-010    -1.4336459385436939E-045
  -1.6800000000000004E-010    -9.8555954058215102E-044
  -1.6400000000000005E-010    -2.2487345026092691E-043
  -1.6000000000000007E-010    -3.5857972494295636E-043
  -1.5600000000000008E-010    -4.6035666318831886E-043
  -1.5200000000000010E-010    -4.8099479598323151E-043
  -1.4800000000000011E-010    -3.6641639162925560E-043
  -1.4399999999999992E-010    -7.2552491788122635E-044
  -1.3999999999999993E-010     4.1540444333840944E-043
  -1.3599999999999994E-010     1.0619792302171596E-042
  -1.3199999999999996E-010     1.7629495506769749E-042
  -1.2799999999999997E-010     2.3375680398782212E-042
  -1.2399999999999999E-010     2.5449727654465705E-042
  -1.2000000000000000E-010     2.1145449309281858E-042
  -1.1600000000000001E-010     8.2086959528068275E-043
  -1.1200000000000003E-010    -1.4369813901759741E-042
  -1.0800000000000004E-010    -4.5316458199493540E-042
  -1.0400000000000005E-010    -8.0172476852662686E-042
  -1.0000000000000007E-010    -1.1100458115711173E-041
  -9.6000000000000082E-011    -1.2672605423905448E-041
  -9.2000000000000096E-011    -1.1472594098127066E-041
  -8.8000000000000110E-011    -6.3616402063236421E-042
  -8.3999999999999917E-011     3.2856041307544645E-042
  -7.9999999999999931E-011     1.7138550425854807E-041
  -7.5999999999999944E-011     3.3507772643609532E-041
  -7.1999999999999958E-011     4.9126990420551007E-041
  -6.7999999999999972E-011     5.9262780821157114E-041
  -6.3999999999999986E-011     5.8284880523387265E-041
  -6.0000000000000000E-011     4.0776093883792261E-041
  -5.6000000000000013E-011     3.1276130865012472E-042
  -5.2000000000000027E-011    -5.4574527405660892E-041
  -4.8000000000000041E-011    -1.2674617844881829E-040
  -4.4000000000000055E-011    -2.0112740846652008E-040
  -4.0000000000000069E-011    -2.5883217169722969E-040
  -3.6000000000000082E-011    -2.7620473495742316E-040
  -3.2000000000000096E-011    -2.2883639014358922E-040
  -2.8000000000000110E-011    -9.7682899463052860E-041
  -2.3999999999999917E-011     1.2334830611794689E-040
  -1.9999999999999931E-011     4.1968075814467916E-040
  -1.5999999999999945E-011     7.5017256890118025E-040
  -1.1999999999999959E-011     1.0454098484939981E-039
  -7.9999999999999724E-012     1.2125386419584726E-039
  -3.9999999999999862E-012     1.1483508344654325E-039
   0.0000000000000000          7.6094953515144620E-040
   3.9999999999999862E-012    -1.7013876303028506E-042
   7.9999999999999724E-012    -1.1205430953015995E-039
   1.1999999999999959E-011    -2.4782151856678683E-039
   1.5999999999999945E-011    -3.8444650261417313E-039
   1.9999999999999931E-011    -4.8833065068233701E-039
   2.3999999999999917E-011    -5.1895437915270186E-039
   2.7999999999999903E-011    -4.3582405381503355E-039
   3.1999999999999889E-011    -2.0841374028363741E-039
   3.6000000000000082E-011     1.7205860674398581E-039
   4.0000000000000069E-011     6.8110529781876384E-039
   4.4000000000000055E-011     1.2525838113607934E-038
   4.8000000000000041E-011     1.7767744982698559E-038
   5.2000000000000027E-011     2.1080536260809737E-038
   5.6000000000000013E-011     2.0842883506203947E-038
   6.0000000000000000E-011     1.5581705747702544E-038
   6.3999999999999986E-011     4.3798735488631988E-039
   6.7999999999999972E-011    -1.2678692937260592E-038
   7.1999999999999958E-011    -3.4114809645855965E-038
   7.5999999999999944E-011    -5.6821953992655868E-038
   7.9999999999999931E-011    -7.6114049861504873E-038
   8.3999999999999917E-011    -8.6152860128041183E-038
   8.7999999999999903E-011    -8.0807411770211812E-038
   9.1999999999999889E-011    -5.4920762780136031E-038
   9.6000000000000082E-011    -5.8587364223319315E-039
   1.0000000000000007E-010     6.4895166951106438E-038
   1.0400000000000005E-010     1.5043420126179048E-037
   1.0800000000000004E-010     2.3781082726951664E-037
   1.1200000000000003E-010     3.0850504184082898E-037
   1.1600000000000001E-010     3.4028940127759538E-037
   1.2000000000000000E-010     3.1061563207313372E-037
   1.2399999999999999E-010     2.0136699859659957E-037
   1.2799999999999997E-010     4.4718098001828558E-039
   1.3199999999999996E-010    -2.7249560438479617E-037
   1.3599999999999994E-010    -6.0191753417462142E-037
   1.3999999999999993E-010    -9.3431228281341336E-037
   1.4399999999999992E-010    -1.2004261934913712E-036
   1.4799999999999990E-010    -1.3182454067961338E-036
   1.5199999999999989E-010    -1.2052825516445330E-036
   1.5600000000000008E-010    -7.9553820276043389E-037
   1.6000000000000007E-010    -5.9361191463073954E-038
   1.6400000000000005E-010     9.7679284751401550E-037
   1.6800000000000004E-010     2.2147663668339258E-036
   1.7200000000000003E-010     3.4779395964365022E-036
   1.7600000000000001E-010     4.5178749833677210E-036
   1.8000000000000000E-010     5.0378817602482687E-036
   1.8399999999999998E-010     4.7349012037555155E-036
   1.8799999999999997E-010     3.3579694582167956E-036
   1.9199999999999996E-010     7.7761516229398249E-037
   1.9599999999999994E-010    -2.9436071890495424E-036
   1.9999999999999993E-010    -7.4929514914254941E-036
   2.0399999999999992E-010    -1.2277551295380402E-035
   2.0799999999999990E-010    -1.6438685035558793E-035
   2.1199999999999989E-010    -1.8923258674785969E-035
   2.1600000000000008E-010    -1.8618977575630029E-035
   2.2000000000000007E-010    -1.4549668806687561E-035
   2.2400000000000005E-010    -6.1143076931979382E-036
   2.2800000000000004E-010     6.6608519003388362E-036
   2.3200000000000003E-010     2.2900978104962783E-035
   2.3600000000000001E-010     4.0745502198606024E-035
   2.4000000000000000E-010     5.7351076349485269E-035
   2.4399999999999998E-010     6.9083316959985620E-035
   2.4799999999999997E-010     7.1927021684458637E-035
   2.5199999999999996E-010     6.2113418887313540E-035
   2.5599999999999994E-010     3.6921292377389582E-035
   2.5999999999999993E-010    -4.4387955632428003E-036
   2.6399999999999992E-010    -5.9994893112127634E-035
   2.6799999999999990E-010    -1.2441319566972045E-034
   2.7199999999999989E-010    -1.8881790984197174E-034
   2.7600000000000008E-010    -2.4120884122746593E-034
   2.8000000000000007E-010    -2.6760286125760370E-034
   2.8400000000000005E-010    -2.5393340238402240E-034
   2.8800000000000004E-010    -1.8861315901428429E-034
   2.9200000000000003E-010    -6.5511381727451838E-035
   2.9600000000000001E-010     1.1306140385472488E-034
   3.0000000000000000E-010     3.3390370712975571E-034
   3.0399999999999998E-010     5.7163126811536556E-034
   3.0799999999999997E-010     7.8915787707520789E-034
   3.1199999999999996E-010     9.4044215401780590E-034
   3.1599999999999994E-010     9.7574386506238276E-034
   3.1999999999999993E-010     8.4926196588613348E-034
   3.2399999999999992E-010     5.2856109454865374E-034
   3.2799999999999990E-010     4.6889594747595788E-036
   3.3199999999999989E-010    -6.9857708813497983E-034
   3.3600000000000008E-010    -1.5182490770952797E-033
   3.4000000000000007E-010    -2.3504065609992020E-033
   3.4400000000000005E-010    -3.0550145377785781E-033
   3.4800000000000004E-010    -3.4684709835687497E-033
   3.5200000000000003E-010    -3.4241118783920975E-033
   3.5600000000000001E-010    -2.7796095319586772E-033
   3.6000000000000000E-010    -1.4487246752600119E-033
   3.6399999999999998E-010     5.6661223130461202E-034
   3.6799999999999997E-010     3.1491442127922276E-033
   3.7199999999999996E-010     6.0500139025438866E-033
   3.7599999999999994E-010     8.8892722055432907E-033
   3.7999999999999993E-010     1.1178006269136264E-032
   3.8399999999999991E-010     1.2364809058499689E-032
   3.8799999999999990E-010     1.1906173684158366E-032
   3.9199999999999989E-010     9.3564703347869453E-033
   3.9599999999999987E-010     4.4688533301343770E-033
   4.0000000000000007E-010    -2.7056384733206921E-033
   4.0400000000000005E-010    -1.1736787169791802E-032
   4.0800000000000004E-010    -2.1769344242011900E-032
   4.1200000000000002E-010    -3.1529682728539794E-032
   4.1600000000000001E-010    -3.9398717529563685E-032
   4.2000000000000000E-010    -4.3558693782957752E-032
   4.2399999999999998E-010    -4.2212507928409677E-032
   4.2799999999999997E-010    -3.3863244595035610E-032
   4.3199999999999996E-010    -1.7629384813823762E-032
   4.3599999999999994E-010     6.4405278661525485E-033
   4.3999999999999993E-010     3.7099850434779887E-032
   4.4399999999999991E-010     7.1734347473205655E-032
   4.4799999999999990E-010     1.0634334863282962E-031
   4.5199999999999989E-010     1.3571689417446049E-031
   4.5599999999999987E-010     1.5383917198919203E-031
   4.6000000000000007E-010     1.5452560102899491E-031
   4.6400000000000005E-010     1.3227074696895672E-031
   4.6800000000000004E-010     8.3248611591082280E-032
   4.7200000000000002E-010     6.3694903143431163E-033
   4.7600000000000001E-010    -9.5737513411291941E-032
   4.8000000000000000E-010    -2.1597518223396114E-031
   4.8399999999999998E-010    -3.4243486369564298E-031
   4.8799999999999997E-010    -4.5862821311580251E-031
   4.9199999999999996E-010    -5.4443375216833578E-031
   4.9599999999999994E-010    -5.7784297658910642E-031
   4.9999999999999993E-010    -5.3750643745389843E-031
   5.0399999999999991E-010    -4.0597078820857057E-031
   5.0799999999999990E-010    -1.7336883475433921E-031
   5.1199999999999989E-010     1.5881047200054838E-031
   5.1599999999999987E-010     5.7437461054603036E-031
   5.2000000000000007E-010     1.0401014022475411E-030
   5.2400000000000005E-010     1.5050814831076144E-030
   5.2800000000000004E-010     1.9023483914191615E-030
   5.3200000000000002E-010     2.1532903342313780E-030
   5.3600000000000001E-010     2.1751063576685757E-030
   5.4000000000000000E-010     1.8912237608258304E-030
   5.4399999999999998E-010     1.2441496345826824E-030
   5.4799999999999997E-010     2.0971725696185976E-031
   5.5199999999999995E-010    -1.1888443019837815E-030
   5.5599999999999994E-010    -2.8690682425053387E-030
   5.5999999999999993E-010    -4.6820240350295629E-030
   5.6399999999999991E-010    -6.4122090978397025E-030
   5.6799999999999990E-010    -7.7868484382430078E-030
   5.7199999999999989E-010    -8.4962781451881461E-030
   5.7599999999999987E-010    -8.2260545982960297E-030
   5.8000000000000007E-010    -6.6999621007623669E-030
   5.8400000000000005E-010    -3.7312779706297199E-030
   5.8800000000000004E-010     7.2235452782269322E-031
   5.9200000000000002E-010     6.5070747433359929E-030
   5.9600000000000001E-010     1.3232269010939052E-029
   6.0000000000000000E-010     2.0250642163104442E-029
   6.0399999999999998E-010     2.6668175317624895E-029
   6.0799999999999997E-010     3.1391933071148059E-029
   6.1199999999999995E-010     3.3220784318417333E-029
   6.1599999999999994E-010     3.0979677195168788E-029
   6.1999999999999993E-010     2.3692125352097653E-029
   6.2399999999999991E-010     1.0778594840585944E-029
   6.2799999999999990E-010    -7.7389441377120321E-030
   6.3199999999999989E-010    -3.1052922115416274E-029
   6.3599999999999987E-010    -5.7438410045235783E-029
   6.4000000000000006E-010    -8.4207976635581409E-029
   6.4400000000000005E-010    -1.0778575950457068E-028
   6.4800000000000004E-010    -1.2392673617867506E-028
   6.5200000000000002E-010    -1.2809490371680323E-028
   6.5600000000000001E-010    -1.1599622545146503E-028
   6.6000000000000000E-010    -8.4239981702219744E-029
   6.6399999999999978E-010    -3.1076430706196569E-029
   6.6800000000000017E-010     4.2866868857606778E-029
   6.7200000000000016E-010     1.3395047441424981E-028
   6.7600000000000015E-010     2.3510649681526966E-028
   6.8000000000000013E-010     3.3576045294717724E-028
   6.8400000000000012E-010     4.2220193694174156E-028
   6.8800000000000011E-010     4.7848598776410953E-028
   6.9200000000000009E-010     4.8789967789717944E-028
   6.9600000000000008E-010     4.3496317064568124E-028
   7.0000000000000006E-010     3.0785459073222748E-028
   7.0400000000000005E-010     1.0105988836133082E-028
   7.0800000000000004E-010    -1.8203680564793125E-028
   7.1200000000000002E-010    -5.2698113867193846E-028
   7.1600000000000001E-010    -9.0689875684640404E-028
   7.2000000000000000E-010    -1.2823803210817039E-027
   7.2399999999999998E-010    -1.6029672718018364E-027
   7.2799999999999997E-010    -1.8105015755196456E-027
   7.3199999999999995E-010    -1.8444329389007825E-027
   7.3599999999999994E-010    -1.6489532334784689E-027
   7.3999999999999993E-010    -1.1815562484927259E-027
   7.4399999999999991E-010    -4.2232579021560032E-028
   7.4799999999999990E-010     6.1702498093879366E-028
   7.5199999999999988E-010     1.8855853653142233E-027
   7.5599999999999987E-010     3.2885159262066075E-027
   7.5999999999999986E-010     4.6865405943976634E-027
   7.6399999999999984E-010     5.9008929281430862E-027
   7.6799999999999983E-010     6.7246102453208666E-027
   7.7199999999999982E-010     6.9405113986949962E-027
   7.7599999999999980E-010     6.3454586035687574E-027
   7.7999999999999979E-010     4.7796264719120780E-027
   7.8399999999999977E-010     2.1585289261989611E-027
   7.8800000000000017E-010    -1.4953796821582682E-027
   7.9200000000000016E-010    -6.0255244158211283E-027
   7.9600000000000015E-010    -1.1122970533690215E-026
   8.0000000000000013E-010    -1.6321767890109475E-026
   8.0400000000000012E-010    -2.1012132081094643E-026
   8.0800000000000010E-010    -2.4474680306767158E-026
   8.1200000000000009E-010    -2.5937288659695960E-026
   8.1600000000000008E-010    -2.4653819829028093E-026
   8.2000000000000006E-010    -2.0001205915033553E-026
   8.2400000000000005E-010    -1.1588224945853744E-026
   8.2800000000000004E-010     6.3381578682669897E-028
   8.3200000000000002E-010     1.6271088360732125E-026
   8.3600000000000001E-010     3.4412572282407782E-026
   8.3999999999999999E-010     5.3596257885766727E-026
   8.4399999999999998E-010     7.1831080694705558E-026
   8.4799999999999997E-010     8.6686778639813635E-026
   8.5199999999999995E-010     9.5459336335361749E-026
   8.5599999999999994E-010     9.5412796553626175E-026
   8.5999999999999993E-010     8.4089704246680114E-026
   8.6399999999999991E-010     5.9672584986134636E-026
   8.6799999999999990E-010     2.1368432395610173E-026
   8.7199999999999988E-010    -3.0221908417832148E-026
   8.7599999999999987E-010    -9.2795451328660376E-026
   8.7999999999999986E-010    -1.6215111487807362E-025
   8.8399999999999984E-010    -2.3215795689241182E-025
   8.8799999999999983E-010    -2.9493429440447268E-025
   8.9199999999999981E-010    -3.4127285879525049E-025
   8.9599999999999980E-010    -3.6132876384833035E-025
   8.9999999999999979E-010    -3.4556218491729663E-025
   9.0399999999999977E-010    -2.8589672643472773E-025
   9.0799999999999976E-010    -1.7702127026639517E-025
   9.1200000000000016E-010    -1.7727697365498567E-026
   9.1600000000000015E-010     1.8785416068434133E-025
   9.2000000000000013E-010     4.2928749540077606E-025
   9.2400000000000012E-010     6.8930223138847412E-025
   9.2800000000000010E-010     9.4388414946115800E-025
   9.3200000000000009E-010     1.1631302141324874E-024
   9.3600000000000008E-010     1.3129763854544120E-024
   9.4000000000000006E-010     1.3578360581921581E-024
   9.4400000000000005E-010     1.2641000125375199E-024
   9.4800000000000004E-010     1.0043406950306085E-024
   9.5200000000000002E-010     5.6195111921772446E-025
   9.5600000000000001E-010    -6.4171522843643443E-026
   9.5999999999999999E-010    -8.5538778411629234E-025
   9.6399999999999998E-010    -1.7700956801330643E-024
   9.6799999999999997E-010    -2.7421351312872768E-024
   9.7199999999999995E-010    -3.6814087172989126E-024
   9.7599999999999994E-010    -4.4772260598128748E-024