  -1.2000000000000000E-009     0.0000000000000000     
  -1.1960000000000000E-009     0.0000000000000000     
  -1.1920000000000000E-009     0.0000000000000000     
  -1.1880000000000000E-009     0.0000000000000000     
  -1.1840000000000000E-009     0.0000000000000000     
  -1.1800000000000001E-009     0.0000000000000000     
  -1.1760000000000001E-009     0.0000000000000000     
  -1.1720000000000001E-009     0.0000000000000000     
  -1.1679999999999999E-009     0.0000000000000000     
  -1.1639999999999999E-009     0.0000000000000000     
  -1.1599999999999999E-009     0.0000000000000000     
  -1.1559999999999999E-009     0.0000000000000000     
  -1.1520000000000000E-009     0.0000000000000000     
  -1.1480000000000000E-009     0.0000000000000000     
  -1.1440000000000000E-009     0.0000000000000000     
  -1.1400000000000000E-009     0.0000000000000000     
  -1.1360000000000000E-009     0.0000000000000000     
  -1.1320000000000000E-009     0.0000000000000000     
  -1.1280000000000000E-009     0.0000000000000000     
  -1.1240000000000000E-009     0.0000000000000000     
  -1.1200000000000001E-009     0.0000000000000000     
  -1.1160000000000001E-009     0.0000000000000000     
  -1.1120000000000001E-009     0.0000000000000000     
  -1.1079999999999999E-009     0.0000000000000000     
  -1.1039999999999999E-009     0.0000000000000000     
  -1.0999999999999999E-009     0.0000000000000000     
  -1.0959999999999999E-009     0.0000000000000000     
  -1.0920000000000000E-009     0.0000000000000000     
  -1.0880000000000000E-009     0.0000000000000000     
  -1.0840000000000000E-009     0.0000000000000000     
  -1.0800000000000000E-009     0.0000000000000000     
  -1.0760000000000000E-009     0.0000000000000000     
  -1.0720000000000000E-009     0.0000000000000000     
  -1.0680000000000000E-009     0.0000000000000000     
  -1.0640000000000000E-009     0.0000000000000000     
  -1.0600000000000001E-009     0.0000000000000000     
  -1.0560000000000001E-009     0.0000000000000000     
  -1.0520000000000001E-009     0.0000000000000000     
  -1.0480000000000001E-009     0.0000000000000000     
  -1.0439999999999999E-009     0.0000000000000000     
  -1.0399999999999999E-009     0.0000000000000000     
  -1.0359999999999999E-009     0.0000000000000000     
  -1.0320000000000000E-009     0.0000000000000000     
  -1.0280000000000000E-009     0.0000000000000000     
  -1.0240000000000000E-009     0.0000000000000000     
  -1.0200000000000000E-009     0.0000000000000000     
  -1.0160000000000000E-009     0.0000000000000000     
  -1.0120000000000000E-009     0.0000000000000000     
  -1.0080000000000000E-009     0.0000000000000000     
  -1.0040000000000000E-009     0.0000000000000000     
  -1.0000000000000001E-009     0.0000000000000000     
  -9.9600000000000008E-010     0.0000000000000000     
  -9.9199999999999988E-010     0.0000000000000000     
  -9.8799999999999990E-010     0.0000000000000000     
  -9.8399999999999991E-010     0.0000000000000000     
  -9.7999999999999992E-010     0.0000000000000000     
  -9.7599999999999994E-010     0.0000000000000000     
  -9.7199999999999995E-010     0.0000000000000000     
  -9.6799999999999997E-010     0.0000000000000000     
  -9.6399999999999998E-010     0.0000000000000000     
  -9.5999999999999999E-010     0.0000000000000000     
  -9.5600000000000001E-010     0.0000000000000000     
  -9.5200000000000002E-010     0.0000000000000000     
  -9.4800000000000004E-010     0.0000000000000000     
  -9.4400000000000005E-010     0.0000000000000000     
  -9.4000000000000006E-010     0.0000000000000000     
  -9.3600000000000008E-010     0.0000000000000000     
  -9.3200000000000009E-010     0.0000000000000000     
  -9.2800000000000000E-010     0.0000000000000000     
  -9.2400000000000001E-010     0.0000000000000000     
  -9.1999999999999992E-010     0.0000000000000000     
  -9.1599999999999994E-010     0.0000000000000000     
  -9.1199999999999995E-010     0.0000000000000000     
  -9.0799999999999997E-010     0.0000000000000000     
  -9.0399999999999998E-010     0.0000000000000000     
  -8.9999999999999999E-010     0.0000000000000000     
  -8.9600000000000001E-010     0.0000000000000000     
  -8.9200000000000002E-010     0.0000000000000000     
  -8.8800000000000004E-010     0.0000000000000000     
  -8.8400000000000005E-010     0.0000000000000000     
  -8.8000000000000006E-010     0.0000000000000000     
  -8.7599999999999997E-010     0.0000000000000000     
  -8.7199999999999999E-010     0.0000000000000000     
  -8.6800000000000000E-010     0.0000000000000000     
  -8.6400000000000001E-010     0.0000000000000000     
  -8.5999999999999993E-010     0.0000000000000000     
  -8.5599999999999994E-010     0.0000000000000000     
  -8.5199999999999995E-010     0.0000000000000000     
  -8.4799999999999997E-010     0.0000000000000000     
  -8.4399999999999998E-010     0.0000000000000000     
  -8.3999999999999999E-010     0.0000000000000000     
  -8.3600000000000001E-010     0.0000000000000000     
  -8.3200000000000002E-010     0.0000000000000000     
  -8.2800000000000004E-010     0.0000000000000000     
  -8.2400000000000005E-010     0.0000000000000000     
  -8.2000000000000006E-010     0.0000000000000000     
  -8.1599999999999997E-010     0.0000000000000000     
  -8.1199999999999999E-010     0.0000000000000000     
  -8.0800000000000000E-010     0.0000000000000000     
  -8.0400000000000002E-010     0.0000000000000000     
  -7.9999999999999993E-010     0.0000000000000000     
  -7.9599999999999994E-010     0.0000000000000000     
  -7.9199999999999995E-010     0.0000000000000000     
  -7.8799999999999997E-010     0.0000000000000000     
  -7.8399999999999998E-010     0.0000000000000000     
  -7.7999999999999999E-010     0.0000000000000000     
  -7.7600000000000001E-010     0.0000000000000000     
  -7.7200000000000002E-010     0.0000000000000000     
  -7.6800000000000004E-010     0.0000000000000000     
  -7.6400000000000005E-010     0.0000000000000000     
  -7.6000000000000006E-010     0.0000000000000000     
  -7.5600000000000008E-010     0.0000000000000000     
  -7.5199999999999999E-010     0.0000000000000000     
  -7.4800000000000000E-010     0.0000000000000000     
  -7.4400000000000002E-010     0.0000000000000000     
  -7.3999999999999993E-010     0.0000000000000000     
  -7.3599999999999994E-010     0.0000000000000000     
  -7.3199999999999995E-010     0.0000000000000000     
  -7.2799999999999997E-010     0.0000000000000000     
  -7.2399999999999998E-010     0.0000000000000000     
  -7.2000000000000000E-010     0.0000000000000000     
  -7.1600000000000001E-010     0.0000000000000000     
  -7.1200000000000002E-010     0.0000000000000000     
  -7.0800000000000004E-010     0.0000000000000000     
  -7.0400000000000005E-010     0.0000000000000000     
  -6.9999999999999996E-010     0.0000000000000000     
  -6.9599999999999997E-010     0.0000000000000000     
  -6.9199999999999999E-010     0.0000000000000000     
  -6.8800000000000000E-010     0.0000000000000000     
  -6.8400000000000002E-010     0.0000000000000000     
  -6.8000000000000003E-010     0.0000000000000000     
  -6.7600000000000004E-010     0.0000000000000000     
  -6.7199999999999995E-010     0.0000000000000000     
  -6.6799999999999997E-010     0.0000000000000000     
  -6.6399999999999998E-010     0.0000000000000000     
  -6.6000000000000000E-010     0.0000000000000000     
  -6.5600000000000001E-010     0.0000000000000000     
  -6.5200000000000002E-010     0.0000000000000000     
  -6.4800000000000004E-010     0.0000000000000000     
  -6.4400000000000005E-010     0.0000000000000000     
  -6.3999999999999996E-010     0.0000000000000000     
  -6.3599999999999998E-010     0.0000000000000000     
  -6.3199999999999999E-010     0.0000000000000000     
  -6.2800000000000000E-010     0.0000000000000000     
  -6.2400000000000002E-010     0.0000000000000000     
  -6.2000000000000003E-010     0.0000000000000000     
  -6.1600000000000004E-010     0.0000000000000000     
  -6.1199999999999995E-010     0.0000000000000000     
  -6.0799999999999997E-010     0.0000000000000000     
  -6.0399999999999998E-010     0.0000000000000000     
  -6.0000000000000000E-010     0.0000000000000000     
  -5.9600000000000001E-010     0.0000000000000000     
  -5.9200000000000002E-010     0.0000000000000000     
  -5.8800000000000004E-010     0.0000000000000000     
  -5.8400000000000005E-010     0.0000000000000000     
  -5.7999999999999996E-010     0.0000000000000000     
  -5.7599999999999998E-010     0.0000000000000000     
  -5.7199999999999999E-010     0.0000000000000000     
  -5.6800000000000000E-010     0.0000000000000000     
  -5.6400000000000002E-010     0.0000000000000000     
  -5.6000000000000003E-010     0.0000000000000000     
  -5.5600000000000004E-010     0.0000000000000000     
  -5.5199999999999995E-010     0.0000000000000000     
  -5.4799999999999997E-010     0.0000000000000000     
  -5.4399999999999998E-010     0.0000000000000000     
  -5.4000000000000000E-010     0.0000000000000000     
  -5.3600000000000001E-010     0.0000000000000000     
  -5.3200000000000002E-010     0.0000000000000000     
  -5.2800000000000004E-010     0.0000000000000000     
  -5.2400000000000005E-010     0.0000000000000000     
  -5.1999999999999996E-010     0.0000000000000000     
  -5.1599999999999998E-010     0.0000000000000000     
  -5.1199999999999999E-010     0.0000000000000000     
  -5.0800000000000000E-010     0.0000000000000000     
  -5.0400000000000002E-010     0.0000000000000000     
  -5.0000000000000003E-010     0.0000000000000000     
  -4.9600000000000004E-010     0.0000000000000000     
  -4.9199999999999996E-010     0.0000000000000000     
  -4.8799999999999997E-010     0.0000000000000000     
  -4.8399999999999998E-010     0.0000000000000000     
  -4.8000000000000000E-010     0.0000000000000000     
  -4.7600000000000001E-010     0.0000000000000000     
  -4.7200000000000002E-010     0.0000000000000000     
  -4.6800000000000004E-010     0.0000000000000000     
  -4.6400000000000005E-010     0.0000000000000000     
  -4.5999999999999996E-010     0.0000000000000000     
  -4.5599999999999998E-010     0.0000000000000000     
  -4.5199999999999999E-010     0.0000000000000000     
  -4.4800000000000000E-010     0.0000000000000000     
  -4.4400000000000002E-010     0.0000000000000000     
  -4.4000000000000003E-010     0.0000000000000000     
  -4.3600000000000005E-010     0.0000000000000000     
  -4.3199999999999996E-010     0.0000000000000000     
  -4.2799999999999997E-010     0.0000000000000000     
  -4.2399999999999998E-010     0.0000000000000000     
  -4.2000000000000000E-010     0.0000000000000000     
  -4.1600000000000001E-010     0.0000000000000000     
  -4.1200000000000002E-010     0.0000000000000000     
  -4.0800000000000004E-010     0.0000000000000000     
  -4.0400000000000005E-010     0.0000000000000000     
  -3.9999999999999996E-010     0.0000000000000000     
  -3.9599999999999998E-010     0.0000000000000000     
  -3.9199999999999999E-010     0.0000000000000000     
  -3.8800000000000000E-010     0.0000000000000000     
  -3.8400000000000002E-010     0.0000000000000000     
  -3.8000000000000003E-010     0.0000000000000000     
  -3.7600000000000005E-010     0.0000000000000000     
  -3.7200000000000006E-010     0.0000000000000000     
  -3.6799999999999997E-010     0.0000000000000000     
  -3.6399999999999998E-010     0.0000000000000000     
  -3.6000000000000000E-010     0.0000000000000000     
  -3.5600000000000001E-010     0.0000000000000000     
  -3.5200000000000003E-010     0.0000000000000000     
  -3.4800000000000004E-010     0.0000000000000000     
  -3.4400000000000005E-010     0.0000000000000000     
  -3.3999999999999996E-010     0.0000000000000000     
  -3.3599999999999998E-010     0.0000000000000000     
  -3.3199999999999999E-010     0.0000000000000000     
  -3.2800000000000000E-010     0.0000000000000000     
  -3.2400000000000002E-010     0.0000000000000000     
  -3.2000000000000003E-010     0.0000000000000000     
  -3.1600000000000005E-010     0.0000000000000000     
  -3.1200000000000006E-010     0.0000000000000000     
  -3.0799999999999997E-010     0.0000000000000000     
  -3.0399999999999998E-010     0.0000000000000000     
  -3.0000000000000000E-010     0.0000000000000000     
  -2.9600000000000001E-010     0.0000000000000000     
  -2.9200000000000003E-010     0.0000000000000000     
  -2.8800000000000004E-010     0.0000000000000000     
  -2.8400000000000005E-010     0.0000000000000000     
  -2.7999999999999996E-010     0.0000000000000000     
  -2.7599999999999998E-010     0.0000000000000000     
  -2.7199999999999999E-010     0.0000000000000000     
  -2.6800000000000011E-010     0.0000000000000000     
  -2.6399999999999992E-010     0.0000000000000000     
  -2.5999999999999993E-010     0.0000000000000000     
  -2.5599999999999994E-010     0.0000000000000000     
  -2.5199999999999996E-010     0.0000000000000000     
  -2.4799999999999997E-010     0.0000000000000000     
  -2.4399999999999998E-010     0.0000000000000000     
  -2.4000000000000000E-010     0.0000000000000000     
  -2.3600000000000001E-010     0.0000000000000000     
  -2.3200000000000003E-010     0.0000000000000000     
  -2.2800000000000004E-010     0.0000000000000000     
  -2.2400000000000005E-010     0.0000000000000000     
  -2.2000000000000007E-010     0.0000000000000000     
  -2.1600000000000008E-010     0.0000000000000000     
  -2.1200000000000010E-010     0.0000000000000000     
  -2.0800000000000011E-010     0.0000000000000000     
  -2.0399999999999992E-010     0.0000000000000000     
  -1.9999999999999993E-010     0.0000000000000000     
  -1.9599999999999994E-010     0.0000000000000000     
  -1.9199999999999996E-010     0.0000000000000000     
  -1.8799999999999997E-010     0.0000000000000000     
  -1.8399999999999998E-010     0.0000000000000000     
  -1.8000000000000000E-010     0.0000000000000000     
  -1.7600000000000001E-010     0.0000000000000000     
  -1.7200000000000003E-010     0.0000000000000000     
  -1.6800000000000004E-010     0.0000000000000000     
  -1.6400000000000005E-010     0.0000000000000000     
  -1.6000000000000007E-010     0.0000000000000000     
  -1.5600000000000008E-010     0.0000000000000000     
  -1.5200000000000010E-010     0.0000000000000000     
  -1.4800000000000011E-010     0.0000000000000000     
  -1.4399999999999992E-010     0.0000000000000000     
  -1.3999999999999993E-010     0.0000000000000000     
  -1.3599999999999994E-010     0.0000000000000000     
  -1.3199999999999996E-010     0.0000000000000000     
  -1.2799999999999997E-010     0.0000000000000000     
  -1.2399999999999999E-010     0.0000000000000000     
  -1.2000000000000000E-010     0.0000000000000000     
  -1.1600000000000001E-010     0.0000000000000000     
  -1.1200000000000003E-010     0.0000000000000000     
  -1.0800000000000004E-010     0.0000000000000000     
  -1.0400000000000005E-010     0.0000000000000000     
  -1.0000000000000007E-010     0.0000000000000000     
  -9.6000000000000082E-011     0.0000000000000000     
  -9.2000000000000096E-011     0.0000000000000000     
  -8.8000000000000110E-011     0.0000000000000000     
  -8.3999999999999917E-011     0.0000000000000000     
  -7.9999999999999931E-011     0.0000000000000000     
  -7.5999999999999944E-011     0.0000000000000000     
  -7.1999999999999958E-011     0.0000000000000000     
  -6.7999999999999972E-011     0.0000000000000000     
  -6.3999999999999986E-011     0.0000000000000000     
  -6.0000000000000000E-011     0.0000000000000000     
  -5.6000000000000013E-011     0.0000000000000000     
  -5.2000000000000027E-011     0.0000000000000000     
  -4.8000000000000041E-011     0.0000000000000000     
  -4.4000000000000055E-011     0.0000000000000000     
  -4.0000000000000069E-011     0.0000000000000000     
  -3.6000000000000082E-011     0.0000000000000000     
  -3.2000000000000096E-011     0.0000000000000000     
  -2.8000000000000110E-011     0.0000000000000000     
  -2.3999999999999917E-011     0.0000000000000000     
  -1.9999999999999931E-011     0.0000000000000000     
  -1.5999999999999945E-011     0.0000000000000000     
  -1.1999999999999959E-011     0.0000000000000000     
  -7.9999999999999724E-012     0.0000000000000000     
  -3.9999999999999862E-012     0.0000000000000000     
   0.0000000000000000          0.0000000000000000     
   3.9999999999999862E-012     0.0000000000000000     
   7.9999999999999724E-012     0.0000000000000000     
   1.1999999999999959E-011     0.0000000000000000     
   1.5999999999999945E-011     0.0000000000000000     
   1.9999999999999931E-011     0.0000000000000000     
   2.3999999999999917E-011     0.0000000000000000     
   2.7999999999999903E-011     0.0000000000000000     
   3.1999999999999889E-011     0.0000000000000000     
   3.6000000000000082E-011     0.0000000000000000     
   4.0000000000000069E-011     0.0000000000000000     
   4.4000000000000055E-011     0.0000000000000000     
   4.8000000000000041E-011     0.0000000000000000     
   5.2000000000000027E-011     0.0000000000000000     
   5.6000000000000013E-011     0.0000000000000000     
   6.0000000000000000E-011     0.0000000000000000     
   6.3999999999999986E-011     0.0000000000000000     
   6.7999999999999972E-011     0.0000000000000000     
   7.1999999999999958E-011     0.0000000000000000     
   7.5999999999999944E-011     0.0000000000000000     
   7.9999999999999931E-011     0.0000000000000000     
   8.3999999999999917E-011     0.0000000000000000     
   8.7999999999999903E-011     0.0000000000000000     
   9.1999999999999889E-011     0.0000000000000000     
   9.6000000000000082E-011     0.0000000000000000     
   1.0000000000000007E-010     0.0000000000000000     
   1.0400000000000005E-010     0.0000000000000000     
   1.0800000000000004E-010     0.0000000000000000     
   1.1200000000000003E-010     0.0000000000000000     
   1.1600000000000001E-010     0.0000000000000000     
   1.2000000000000000E-010     0.0000000000000000     
   1.2399999999999999E-010     0.0000000000000000     
   1.2799999999999997E-010     0.0000000000000000     
   1.3199999999999996E-010     0.0000000000000000     
   1.3599999999999994E-010     0.0000000000000000     
   1.3999999999999993E-010     0.0000000000000000     
   1.4399999999999992E-010     0.0000000000000000     
   1.4799999999999990E-010     0.0000000000000000     
   1.5199999999999989E-010     0.0000000000000000     
   1.5600000000000008E-010     0.0000000000000000     
   1.6000000000000007E-010     0.0000000000000000     
   1.6400000000000005E-010     0.0000000000000000     
   1.6800000000000004E-010     0.0000000000000000     
   1.7200000000000003E-010     0.0000000000000000     
   1.7600000000000001E-010     0.0000000000000000     
   1.8000000000000000E-010     0.0000000000000000     
   1.8399999999999998E-010     0.0000000000000000     
   1.8799999999999997E-010     0.0000000000000000     
   1.9199999999999996E-010     0.0000000000000000     
   1.9599999999999994E-010     0.0000000000000000     
   1.9999999999999993E-010     0.0000000000000000     
   2.0399999999999992E-010     1.3246533812770492E-047
   2.0799999999999990E-010     2.6493067625540984E-047
   2.1199999999999989E-010     2.6493067625540984E-047
   2.1600000000000008E-010     2.6493067625540984E-047
   2.2000000000000007E-010     1.3246533812770492E-047
   2.2400000000000005E-010     0.0000000000000000     
   2.2800000000000004E-010    -2.6493067625540984E-047
   2.3200000000000003E-010    -6.6232669063852460E-047
   2.3600000000000001E-010    -1.0597227050216394E-046
   2.4000000000000000E-010    -1.1921880431493443E-046
   2.4399999999999998E-010    -8.0385589853263138E-047
   2.4799999999999997E-010     1.1433759859490119E-047
   2.5199999999999996E-010     1.4299271101055485E-046
   2.5599999999999994E-010     3.0104472978716057E-046
   2.5999999999999993E-010     4.4675660172763598E-046
   2.6399999999999992E-010     5.5363525920644010E-046
   2.6799999999999990E-010     5.2986135251081968E-046
   2.7199999999999989E-010     3.6128196085136403E-046
   2.7600000000000008E-010    -5.1697352382003620E-047
   2.8000000000000007E-010    -6.3688160518138766E-046
   2.8400000000000005E-010    -1.2946763609367068E-045
   2.8800000000000004E-010    -2.0205165597091588E-045
   2.9200000000000003E-010    -2.4923358510014847E-045
   2.9600000000000001E-010    -1.3476680583573262E-045
   3.0000000000000000E-010     4.2011081457124329E-046
   3.0399999999999998E-010     3.0304744895870065E-045
   3.0799999999999997E-010     6.4575913261113312E-045
   3.1199999999999996E-010     1.0672876451410937E-044
   3.1599999999999994E-010     1.2451334470584038E-044
   3.1999999999999993E-010     1.2652276056245031E-044
   3.2399999999999992E-010     8.9659998672728550E-045
   3.2799999999999990E-010     1.9791098669600119E-045
   3.3199999999999989E-010    -7.9752859516277720E-045
   3.3600000000000008E-010    -2.1159290633679827E-044
   3.4000000000000007E-010    -3.3564140556609162E-044
   3.4400000000000005E-010    -4.4483478294156399E-044
   3.4800000000000004E-010    -5.0834351928999576E-044
   3.5200000000000003E-010    -4.6985916500164588E-044
   3.5600000000000001E-010    -2.9631312236212339E-044
   3.6000000000000000E-010     6.4109253423558330E-046
   3.6399999999999998E-010     4.4409765137420030E-044
   3.6799999999999997E-010     9.7824584667496928E-044
   3.7199999999999996E-010     1.5077326111203137E-043
   3.7599999999999994E-010     1.9250284042674017E-043
   3.7999999999999993E-010     2.0988455576338033E-043
   3.8399999999999991E-010     1.8646243450897432E-043
   3.8799999999999990E-010     1.0978677818856270E-043
   3.9199999999999989E-010    -2.4522043725332468E-044
   3.9599999999999987E-010    -2.1074004160789225E-043
   4.0000000000000007E-010    -4.2990748347217500E-043
   4.0400000000000005E-010    -6.4546027262897388E-043
   4.0800000000000004E-010    -8.1066073560125676E-043
   4.1200000000000002E-010    -8.6729365718546542E-043
   4.1600000000000001E-010    -7.5625956020281149E-043
   4.2000000000000000E-010    -4.3413693229156730E-043
   4.2399999999999998E-010     1.1656684142064456E-043
   4.2799999999999997E-010     8.7032335177584846E-043
   4.3199999999999996E-010     1.7435615327429926E-042
   4.3599999999999994E-010     2.5980857327612687E-042
   4.3999999999999993E-010     3.2415425037929493E-042
   4.4399999999999991E-010     3.4518619004235705E-042
   4.4799999999999990E-010     3.0098121543400130E-042
   4.5199999999999989E-010     1.7467005972517481E-042
   4.5599999999999987E-010    -3.9427112295311730E-043
   4.6000000000000007E-010    -3.3078286241430494E-042
   4.6400000000000005E-010    -6.6883489134815751E-042
   4.6800000000000004E-010    -1.0006652166282371E-041
   4.7200000000000002E-010    -1.2547316672674420E-041
   4.7600000000000001E-010    -1.3474907465148065E-041
   4.8000000000000000E-010    -1.1972346479785094E-041
   4.8399999999999998E-010    -7.4065957916817424E-042
   4.8799999999999997E-010     4.6344677829215557E-043
   4.9199999999999996E-010     1.1295640865596487E-041
   4.9599999999999994E-010     2.4011420244536378E-041
   4.9999999999999993E-010     3.6744209428284844E-041
   5.0399999999999991E-010     4.6921994927243833E-041
   5.0799999999999990E-010     5.1528825441869281E-041
   5.1199999999999989E-010     4.7538788366712528E-041
   5.1599999999999987E-010     3.2523092264849057E-041
   5.2000000000000007E-010     5.3431708305210132E-042
   5.2400000000000005E-010    -3.3147998535182886E-041
   5.2800000000000004E-010    -7.9558907962594646E-041
   5.3200000000000002E-010    -1.2770465642328300E-040
   5.3600000000000001E-010    -1.6881155974194478E-040
   5.4000000000000000E-010    -1.9229381788205281E-040
   5.4399999999999998E-010    -1.8714432425013611E-040
   5.4799999999999997E-010    -1.4390545705233231E-040
   5.5199999999999995E-010    -5.7018074277445285E-041
   5.5599999999999994E-010     7.2743044249689290E-041
   5.5999999999999993E-010     2.3619030712347437E-040
   5.6399999999999991E-010     4.1450518308912645E-040
   5.6799999999999990E-010     5.7939435767610807E-040
   5.7199999999999989E-010     6.9506887634000071E-040
   5.7599999999999987E-010     7.2226959981947961E-040
   5.8000000000000007E-010     6.2431670570587680E-040
   5.8400000000000005E-010     3.7474230929417179E-040
   5.8800000000000004E-010    -3.4337861459770042E-041
   5.9200000000000002E-010    -5.8437953709579182E-040
   5.9600000000000001E-010    -1.2246571852632478E-039
   6.0000000000000000E-010    -1.8703511214788072E-039
   6.0399999999999998E-010    -2.4060559790272371E-039
   6.0799999999999997E-010    -2.6959345365549660E-039
   6.1199999999999995E-010    -2.6009014406465793E-039
   6.1599999999999994E-010    -2.0022181365066466E-039
   6.1999999999999993E-010    -8.2948032822507609E-040
   6.2399999999999991E-010     9.1035884518737256E-040
   6.2799999999999990E-010     3.1076253977895726E-039
   6.3199999999999989E-010     5.5338179409264034E-039
   6.3599999999999987E-010     7.8406149428726604E-039
   6.4000000000000006E-010     9.5792738840887938E-039
   6.4400000000000005E-010     1.0243960843163227E-038
   6.4800000000000004E-010     9.3397088252402967E-039
   6.5200000000000002E-010     6.4717668448169860E-039
   6.5600000000000001E-010     1.4484070731805056E-039
   6.6000000000000000E-010    -5.6157011566236486E-039
   6.6399999999999978E-010    -1.4212911665117004E-038
   6.6800000000000017E-010    -2.3393229789122523E-038
   6.7200000000000016E-010    -3.1773367537234967E-038
   6.7600000000000015E-010    -3.7622739040858887E-038
   6.8000000000000013E-010    -3.9038429294911647E-038
   6.8400000000000012E-010    -3.4210244479227059E-038
   6.8800000000000011E-010    -2.1762138038074232E-038
   6.9200000000000009E-010    -1.1386905999736329E-039
   6.9600000000000008E-010     2.7013228496408608E-038
   7.0000000000000006E-010     6.0533936387323053E-038
   7.0400000000000005E-010     9.5589005198043626E-038
   7.0800000000000004E-010     1.2673506058684813E-037
   7.1200000000000002E-010     1.4728154479760709E-037
   7.1600000000000001E-010     1.4999017502495534E-037
   7.2000000000000000E-010     1.2811118399732550E-037
   7.2399999999999998E-010     7.6697863538596607E-038
   7.2799999999999997E-010    -5.9264226118001444E-039
   7.3199999999999995E-010    -1.1674426062308989E-037
   7.3599999999999994E-010    -2.4691892397232475E-037
   7.3999999999999993E-010    -3.8126164887861337E-037
   7.4399999999999991E-010    -4.9858566324119920E-037
   7.4799999999999990E-010    -5.7319338191043572E-037
   7.5199999999999988E-010    -5.7763502412467605E-037
   7.5599999999999987E-010    -4.8671058433532720E-037
   7.5999999999999986E-010    -2.8246793618342776E-037
   7.6399999999999984E-010     4.0302536572975680E-038
   7.6799999999999983E-010     4.6882799287901710E-037
   7.7199999999999982E-010     9.6833042693982181E-037
   7.7599999999999980E-010     1.4803038573322098E-036
   7.7999999999999979E-010     1.9241520412720894E-036
   7.8399999999999977E-010     2.2030435372405088E-036
   7.8800000000000017E-010     2.2144213723853395E-036
   7.9200000000000016E-010     1.8649831948397163E-036
   7.9600000000000015E-010     1.0891425008856797E-036
   8.0000000000000013E-010    -1.3091250721697168E-037
   8.0400000000000012E-010    -1.7463280128906231E-036
   8.0800000000000010E-010    -3.6273362404171589E-036
   8.1200000000000009E-010    -5.5574898660392263E-036
   8.1600000000000008E-010    -7.2400874569441889E-036
   8.2000000000000006E-010    -8.3197047563085553E-036
   8.2400000000000005E-010    -8.4202423644515359E-036
   8.2800000000000004E-010    -7.1986838309089197E-036
   8.3200000000000002E-010    -4.4109797508093333E-036
   8.3600000000000001E-010     1.6609954671869728E-038
   8.3999999999999999E-010     5.9203532364344386E-036
   8.4399999999999998E-010     1.2848079471351627E-035
   8.4799999999999997E-010     2.0037623096885874E-035
   8.5199999999999995E-010     2.6437352038473711E-035
   8.5599999999999994E-010     3.0778836347675771E-035
   8.5999999999999993E-010     3.1706569204219120E-035
   8.6399999999999991E-010     2.7962352477243344E-035
   8.6799999999999990E-010     1.8612640149595597E-035
   8.7199999999999988E-010     3.2968978516746534E-036
   8.7599999999999987E-010    -1.7534904783740152E-035
   8.7999999999999986E-010    -4.2435669067926494E-035
   8.8399999999999984E-010    -6.8869715101749616E-035
   8.8799999999999983E-010    -9.3259774412740289E-035
   8.9199999999999981E-010    -1.1120765154936898E-034
   8.9599999999999980E-010    -1.1790813459061595E-034
   8.9999999999999979E-010    -1.0875232576455220E-034
   9.0399999999999977E-010    -8.0086956731010635E-035
   9.0799999999999976E-010    -3.0062788679982662E-035
   9.1200000000000016E-010     4.0528042041277916E-035
   9.1600000000000015E-010     1.2755421909998334E-034
   9.2000000000000013E-010     2.2313264133024215E-034
   9.2400000000000012E-010     3.1564822140985093E-034
   9.2800000000000010E-010     3.9033242189499536E-034
   9.3200000000000009E-010     4.3048293263123895E-034
   9.3600000000000008E-010     4.1933660717066369E-034
   9.4000000000000006E-010     3.4251655667142542E-034
   9.4400000000000005E-010     1.9086728650374697E-034
   9.4800000000000004E-010    -3.6618456769999522E-035
   9.5200000000000002E-010    -3.3017811923448151E-034
   9.5600000000000001E-010    -6.6743159574942889E-034
   9.5999999999999999E-010    -1.0128016864484331E-033
   9.6399999999999998E-010    -1.3186595028338064E-033
   9.6799999999999997E-010    -1.5285400859453776E-033
   9.7199999999999995E-010    -1.5825779224999375E-033
   9.7599999999999994E-010    -1.4250424223945078E-033