  -1.2000000000000000E-009     0.0000000000000000     
  -1.1960000000000000E-009     0.0000000000000000     
  -1.1920000000000000E-009     0.0000000000000000     
  -1.1880000000000000E-009     0.0000000000000000     
  -1.1840000000000000E-009     0.0000000000000000     
  -1.1800000000000001E-009     0.0000000000000000     
  -1.1760000000000001E-009     0.0000000000000000     
  -1.1720000000000001E-009     0.0000000000000000     
  -1.1679999999999999E-009     0.0000000000000000     
  -1.1639999999999999E-009     0.0000000000000000     
  -1.1599999999999999E-009     0.0000000000000000     
  -1.1559999999999999E-009     0.0000000000000000     
  -1.1520000000000000E-009     0.0000000000000000     
  -1.1480000000000000E-009     0.0000000000000000     
  -1.1440000000000000E-009     0.0000000000000000     
  -1.1400000000000000E-009     0.0000000000000000     
  -1.1360000000000000E-009     0.0000000000000000     
  -1.1320000000000000E-009     0.0000000000000000     
  -1.1280000000000000E-009     0.0000000000000000     
  -1.1240000000000000E-009     0.0000000000000000     
  -1.1200000000000001E-009     0.0000000000000000     
  -1.1160000000000001E-009     0.0000000000000000     
  -1.1120000000000001E-009     0.0000000000000000     
  -1.1079999999999999E-009     0.0000000000000000     
  -1.1039999999999999E-009     0.0000000000000000     
  -1.0999999999999999E-009     0.0000000000000000     
  -1.0959999999999999E-009     0.0000000000000000     
  -1.0920000000000000E-009     0.0000000000000000     
  -1.0880000000000000E-009     0.0000000000000000     
  -1.0840000000000000E-009     0.0000000000000000     
  -1.0800000000000000E-009     0.0000000000000000     
  -1.0760000000000000E-009     0.0000000000000000     
  -1.0720000000000000E-009     0.0000000000000000     
  -1.0680000000000000E-009     0.0000000000000000     
  -1.0640000000000000E-009     0.0000000000000000     
  -1.0600000000000001E-009     0.0000000000000000     
  -1.0560000000000001E-009     0.0000000000000000     
  -1.0520000000000001E-009     0.0000000000000000     
  -1.0480000000000001E-009     0.0000000000000000     
  -1.0439999999999999E-009     0.0000000000000000     
  -1.0399999999999999E-009     0.0000000000000000     
  -1.0359999999999999E-009     0.0000000000000000     
  -1.0320000000000000E-009     0.0000000000000000     
  -1.0280000000000000E-009     0.0000000000000000     
  -1.0240000000000000E-009     0.0000000000000000     
  -1.0200000000000000E-009     0.0000000000000000     
  -1.0160000000000000E-009     0.0000000000000000     
  -1.0120000000000000E-009     0.0000000000000000     
  -1.0080000000000000E-009     0.0000000000000000     
  -1.0040000000000000E-009     0.0000000000000000     
  -1.0000000000000001E-009     0.0000000000000000     
  -9.9600000000000008E-010     0.0000000000000000     
  -9.9199999999999988E-010     0.0000000000000000     
  -9.8799999999999990E-010     0.0000000000000000     
  -9.8399999999999991E-010     0.0000000000000000     
  -9.7999999999999992E-010     0.0000000000000000     
  -9.7599999999999994E-010     0.0000000000000000     
  -9.7199999999999995E-010     0.0000000000000000     
  -9.6799999999999997E-010     0.0000000000000000     
  -9.6399999999999998E-010     0.0000000000000000     
  -9.5999999999999999E-010     0.0000000000000000     
  -9.5600000000000001E-010     0.0000000000000000     
  -9.5200000000000002E-010     0.0000000000000000     
  -9.4800000000000004E-010     0.0000000000000000     
  -9.4400000000000005E-010     0.0000000000000000     
  -9.4000000000000006E-010     0.0000000000000000     
  -9.3600000000000008E-010     0.0000000000000000     
  -9.3200000000000009E-010     0.0000000000000000     
  -9.2800000000000000E-010     0.0000000000000000     
  -9.2400000000000001E-010     0.0000000000000000     
  -9.1999999999999992E-010     0.0000000000000000     
  -9.1599999999999994E-010     0.0000000000000000     
  -9.1199999999999995E-010     0.0000000000000000     
  -9.0799999999999997E-010     0.0000000000000000     
  -9.0399999999999998E-010     0.0000000000000000     
  -8.9999999999999999E-010     0.0000000000000000     
  -8.9600000000000001E-010     0.0000000000000000     
  -8.9200000000000002E-010     0.0000000000000000     
  -8.8800000000000004E-010     0.0000000000000000     
  -8.8400000000000005E-010     0.0000000000000000     
  -8.8000000000000006E-010     0.0000000000000000     
  -8.7599999999999997E-010     0.0000000000000000     
  -8.7199999999999999E-010     0.0000000000000000     
  -8.6800000000000000E-010     0.0000000000000000     
  -8.6400000000000001E-010     0.0000000000000000     
  -8.5999999999999993E-010     0.0000000000000000     
  -8.5599999999999994E-010     0.0000000000000000     
  -8.5199999999999995E-010     0.0000000000000000     
  -8.4799999999999997E-010     0.0000000000000000     
  -8.4399999999999998E-010     0.0000000000000000     
  -8.3999999999999999E-010     0.0000000000000000     
  -8.3600000000000001E-010     0.0000000000000000     
  -8.3200000000000002E-010     0.0000000000000000     
  -8.2800000000000004E-010     0.0000000000000000     
  -8.2400000000000005E-010     0.0000000000000000     
  -8.2000000000000006E-010     0.0000000000000000     
  -8.1599999999999997E-010     0.0000000000000000     
  -8.1199999999999999E-010     0.0000000000000000     
  -8.0800000000000000E-010     0.0000000000000000     
  -8.0400000000000002E-010     0.0000000000000000     
  -7.9999999999999993E-010     0.0000000000000000     
  -7.9599999999999994E-010     0.0000000000000000     
  -7.9199999999999995E-010     0.0000000000000000     
  -7.8799999999999997E-010     0.0000000000000000     
  -7.8399999999999998E-010     0.0000000000000000     
  -7.7999999999999999E-010     0.0000000000000000     
  -7.7600000000000001E-010     0.0000000000000000     
  -7.7200000000000002E-010     0.0000000000000000     
  -7.6800000000000004E-010     0.0000000000000000     
  -7.6400000000000005E-010     0.0000000000000000     
  -7.6000000000000006E-010     0.0000000000000000     
  -7.5600000000000008E-010     0.0000000000000000     
  -7.5199999999999999E-010     0.0000000000000000     
  -7.4800000000000000E-010     0.0000000000000000     
  -7.4400000000000002E-010     0.0000000000000000     
  -7.3999999999999993E-010     0.0000000000000000     
  -7.3599999999999994E-010     0.0000000000000000     
  -7.3199999999999995E-010     0.0000000000000000     
  -7.2799999999999997E-010     0.0000000000000000     
  -7.2399999999999998E-010     0.0000000000000000     
  -7.2000000000000000E-010     0.0000000000000000     
  -7.1600000000000001E-010     0.0000000000000000     
  -7.1200000000000002E-010     0.0000000000000000     
  -7.0800000000000004E-010     0.0000000000000000     
  -7.0400000000000005E-010     0.0000000000000000     
  -6.9999999999999996E-010     0.0000000000000000     
  -6.9599999999999997E-010     0.0000000000000000     
  -6.9199999999999999E-010     0.0000000000000000     
  -6.8800000000000000E-010     0.0000000000000000     
  -6.8400000000000002E-010     0.0000000000000000     
  -6.8000000000000003E-010     0.0000000000000000     
  -6.7600000000000004E-010     0.0000000000000000     
  -6.7199999999999995E-010     0.0000000000000000     
  -6.6799999999999997E-010     0.0000000000000000     
  -6.6399999999999998E-010     0.0000000000000000     
  -6.6000000000000000E-010     0.0000000000000000     
  -6.5600000000000001E-010     0.0000000000000000     
  -6.5200000000000002E-010     0.0000000000000000     
  -6.4800000000000004E-010     0.0000000000000000     
  -6.4400000000000005E-010     0.0000000000000000     
  -6.3999999999999996E-010     0.0000000000000000     
  -6.3599999999999998E-010     0.0000000000000000     
  -6.3199999999999999E-010     0.0000000000000000     
  -6.2800000000000000E-010     0.0000000000000000     
  -6.2400000000000002E-010     0.0000000000000000     
  -6.2000000000000003E-010     0.0000000000000000     
  -6.1600000000000004E-010     0.0000000000000000     
  -6.1199999999999995E-010     0.0000000000000000     
  -6.0799999999999997E-010     0.0000000000000000     
  -6.0399999999999998E-010     0.0000000000000000     
  -6.0000000000000000E-010     0.0000000000000000     
  -5.9600000000000001E-010     0.0000000000000000     
  -5.9200000000000002E-010     0.0000000000000000     
  -5.8800000000000004E-010     0.0000000000000000     
  -5.8400000000000005E-010     0.0000000000000000     
  -5.7999999999999996E-010     0.0000000000000000     
  -5.7599999999999998E-010     0.0000000000000000     
  -5.7199999999999999E-010     0.0000000000000000     
  -5.6800000000000000E-010     0.0000000000000000     
  -5.6400000000000002E-010     0.0000000000000000     
  -5.6000000000000003E-010     0.0000000000000000     
  -5.5600000000000004E-010     0.0000000000000000     
  -5.5199999999999995E-010     0.0000000000000000     
  -5.4799999999999997E-010     0.0000000000000000     
  -5.4399999999999998E-010     0.0000000000000000     
  -5.4000000000000000E-010     0.0000000000000000     
  -5.3600000000000001E-010     0.0000000000000000     
  -5.3200000000000002E-010     0.0000000000000000     
  -5.2800000000000004E-010     0.0000000000000000     
  -5.2400000000000005E-010     0.0000000000000000     
  -5.1999999999999996E-010     0.0000000000000000     
  -5.1599999999999998E-010     0.0000000000000000     
  -5.1199999999999999E-010     0.0000000000000000     
  -5.0800000000000000E-010     0.0000000000000000     
  -5.0400000000000002E-010     0.0000000000000000     
  -5.0000000000000003E-010     0.0000000000000000     
  -4.9600000000000004E-010     0.0000000000000000     
  -4.9199999999999996E-010     0.0000000000000000     
  -4.8799999999999997E-010     0.0000000000000000     
  -4.8399999999999998E-010     0.0000000000000000     
  -4.8000000000000000E-010     0.0000000000000000     
  -4.7600000000000001E-010     0.0000000000000000     
  -4.7200000000000002E-010     0.0000000000000000     
  -4.6800000000000004E-010     0.0000000000000000     
  -4.6400000000000005E-010     0.0000000000000000     
  -4.5999999999999996E-010     0.0000000000000000     
  -4.5599999999999998E-010     0.0000000000000000     
  -4.5199999999999999E-010     0.0000000000000000     
  -4.4800000000000000E-010     0.0000000000000000     
  -4.4400000000000002E-010     0.0000000000000000     
  -4.4000000000000003E-010     0.0000000000000000     
  -4.3600000000000005E-010     0.0000000000000000     
  -4.3199999999999996E-010     0.0000000000000000     
  -4.2799999999999997E-010     0.0000000000000000     
  -4.2399999999999998E-010     0.0000000000000000     
  -4.2000000000000000E-010     0.0000000000000000     
  -4.1600000000000001E-010     0.0000000000000000     
  -4.1200000000000002E-010     0.0000000000000000     
  -4.0800000000000004E-010     0.0000000000000000     
  -4.0400000000000005E-010     0.0000000000000000     
  -3.9999999999999996E-010     0.0000000000000000     
  -3.9599999999999998E-010     0.0000000000000000     
  -3.9199999999999999E-010     0.0000000000000000     
  -3.8800000000000000E-010     0.0000000000000000     
  -3.8400000000000002E-010     0.0000000000000000     
  -3.8000000000000003E-010     0.0000000000000000     
  -3.7600000000000005E-010     0.0000000000000000     
  -3.7200000000000006E-010     0.0000000000000000     
  -3.6799999999999997E-010     0.0000000000000000     
  -3.6399999999999998E-010     0.0000000000000000     
  -3.6000000000000000E-010     0.0000000000000000     
  -3.5600000000000001E-010     0.0000000000000000     
  -3.5200000000000003E-010     0.0000000000000000     
  -3.4800000000000004E-010     0.0000000000000000     
  -3.4400000000000005E-010     0.0000000000000000     
  -3.3999999999999996E-010     0.0000000000000000     
  -3.3599999999999998E-010     0.0000000000000000     
  -3.3199999999999999E-010     0.0000000000000000     
  -3.2800000000000000E-010     0.0000000000000000     
  -3.2400000000000002E-010     0.0000000000000000     
  -3.2000000000000003E-010     0.0000000000000000     
  -3.1600000000000005E-010     0.0000000000000000     
  -3.1200000000000006E-010     0.0000000000000000     
  -3.0799999999999997E-010     0.0000000000000000     
  -3.0399999999999998E-010     0.0000000000000000     
  -3.0000000000000000E-010     0.0000000000000000     
  -2.9600000000000001E-010     0.0000000000000000     
  -2.9200000000000003E-010     0.0000000000000000     
  -2.8800000000000004E-010     0.0000000000000000     
  -2.8400000000000005E-010     0.0000000000000000     
  -2.7999999999999996E-010     0.0000000000000000     
  -2.7599999999999998E-010     0.0000000000000000     
  -2.7199999999999999E-010     0.0000000000000000     
  -2.6800000000000011E-010     0.0000000000000000     
  -2.6399999999999992E-010     0.0000000000000000     
  -2.5999999999999993E-010     0.0000000000000000     
  -2.5599999999999994E-010     0.0000000000000000     
  -2.5199999999999996E-010     0.0000000000000000     
  -2.4799999999999997E-010     0.0000000000000000     
  -2.4399999999999998E-010     0.0000000000000000     
  -2.4000000000000000E-010     0.0000000000000000     
  -2.3600000000000001E-010     0.0000000000000000     
  -2.3200000000000003E-010     0.0000000000000000     
  -2.2800000000000004E-010     0.0000000000000000     
  -2.2400000000000005E-010     0.0000000000000000     
  -2.2000000000000007E-010     0.0000000000000000     
  -2.1600000000000008E-010     0.0000000000000000     
  -2.1200000000000010E-010     0.0000000000000000     
  -2.0800000000000011E-010     0.0000000000000000     
  -2.0399999999999992E-010     0.0000000000000000     
  -1.9999999999999993E-010     0.0000000000000000     
  -1.9599999999999994E-010     0.0000000000000000     
  -1.9199999999999996E-010     0.0000000000000000     
  -1.8799999999999997E-010     0.0000000000000000     
  -1.8399999999999998E-010     0.0000000000000000     
  -1.8000000000000000E-010     0.0000000000000000     
  -1.7600000000000001E-010     0.0000000000000000     
  -1.7200000000000003E-010     0.0000000000000000     
  -1.6800000000000004E-010     0.0000000000000000     
  -1.6400000000000005E-010     0.0000000000000000     
  -1.6000000000000007E-010     0.0000000000000000     
  -1.5600000000000008E-010     0.0000000000000000     
  -1.5200000000000010E-010     0.0000000000000000     
  -1.4800000000000011E-010     0.0000000000000000     
  -1.4399999999999992E-010     0.0000000000000000     
  -1.3999999999999993E-010     0.0000000000000000     
  -1.3599999999999994E-010     0.0000000000000000     
  -1.3199999999999996E-010     0.0000000000000000     
  -1.2799999999999997E-010     0.0000000000000000     
  -1.2399999999999999E-010     0.0000000000000000     
  -1.2000000000000000E-010     0.0000000000000000     
  -1.1600000000000001E-010     0.0000000000000000     
  -1.1200000000000003E-010     0.0000000000000000     
  -1.0800000000000004E-010     0.0000000000000000     
  -1.0400000000000005E-010     0.0000000000000000     
  -1.0000000000000007E-010     0.0000000000000000     
  -9.6000000000000082E-011     0.0000000000000000     
  -9.2000000000000096E-011     0.0000000000000000     
  -8.8000000000000110E-011     0.0000000000000000     
  -8.3999999999999917E-011     0.0000000000000000     
  -7.9999999999999931E-011     0.0000000000000000     
  -7.5999999999999944E-011     0.0000000000000000     
  -7.1999999999999958E-011     0.0000000000000000     
  -6.7999999999999972E-011     0.0000000000000000     
  -6.3999999999999986E-011     0.0000000000000000     
  -6.0000000000000000E-011     0.0000000000000000     
  -5.6000000000000013E-011     0.0000000000000000     
  -5.2000000000000027E-011     0.0000000000000000     
  -4.8000000000000041E-011     0.0000000000000000     
  -4.4000000000000055E-011     0.0000000000000000     
  -4.0000000000000069E-011     0.0000000000000000     
  -3.6000000000000082E-011     0.0000000000000000     
  -3.2000000000000096E-011     0.0000000000000000     
  -2.8000000000000110E-011     0.0000000000000000     
  -2.3999999999999917E-011     0.0000000000000000     
  -1.9999999999999931E-011     0.0000000000000000     
  -1.5999999999999945E-011     0.0000000000000000     
  -1.1999999999999959E-011     0.0000000000000000     
  -7.9999999999999724E-012     0.0000000000000000     
  -3.9999999999999862E-012     0.0000000000000000     
   0.0000000000000000          0.0000000000000000     
   3.9999999999999862E-012     0.0000000000000000     
   7.9999999999999724E-012     0.0000000000000000     
   1.1999999999999959E-011     0.0000000000000000     
   1.5999999999999945E-011     0.0000000000000000     
   1.9999999999999931E-011     0.0000000000000000     
   2.3999999999999917E-011     0.0000000000000000     
   2.7999999999999903E-011     0.0000000000000000     
   3.1999999999999889E-011     0.0000000000000000     
   3.6000000000000082E-011     0.0000000000000000     
   4.0000000000000069E-011     0.0000000000000000     
   4.4000000000000055E-011     0.0000000000000000     
   4.8000000000000041E-011     0.0000000000000000     
   5.2000000000000027E-011     0.0000000000000000     
   5.6000000000000013E-011     0.0000000000000000     
   6.0000000000000000E-011     0.0000000000000000     
   6.3999999999999986E-011     0.0000000000000000     
   6.7999999999999972E-011     0.0000000000000000     
   7.1999999999999958E-011     0.0000000000000000     
   7.5999999999999944E-011     0.0000000000000000     
   7.9999999999999931E-011     0.0000000000000000     
   8.3999999999999917E-011     0.0000000000000000     
   8.7999999999999903E-011     0.0000000000000000     
   9.1999999999999889E-011     0.0000000000000000     
   9.6000000000000082E-011     0.0000000000000000     
   1.0000000000000007E-010     0.0000000000000000     
   1.0400000000000005E-010     0.0000000000000000     
   1.0800000000000004E-010     0.0000000000000000     
   1.1200000000000003E-010     0.0000000000000000     
   1.1600000000000001E-010     0.0000000000000000     
   1.2000000000000000E-010     0.0000000000000000     
   1.2399999999999999E-010     0.0000000000000000     
   1.2799999999999997E-010     0.0000000000000000     
   1.3199999999999996E-010     0.0000000000000000     
   1.3599999999999994E-010     0.0000000000000000     
   1.3999999999999993E-010     0.0000000000000000     
   1.4399999999999992E-010     0.0000000000000000     
   1.4799999999999990E-010     1.1765285700156155E-061
   1.5199999999999989E-010     1.1765285700156155E-061
   1.5600000000000008E-010     1.1765285700156155E-061
   1.6000000000000007E-010    -4.1331505167913166E-061
   1.6400000000000005E-010    -9.4428296035982486E-061
   1.6800000000000004E-010     4.4641246507599230E-061
   1.7200000000000003E-010     1.1704083149558736E-060
   1.7600000000000001E-010     2.7210342681940182E-060
   1.8000000000000000E-010     2.2531185984879378E-060
   1.8399999999999998E-010     2.3313380688761882E-063
   1.8799999999999997E-010    -2.9982165858098487E-060
   1.9199999999999996E-010    -5.4285789047322317E-060
   1.9599999999999994E-010    -7.7372063389191447E-060
   1.9999999999999993E-010    -5.0699600202304904E-060
   2.0399999999999992E-010     6.8366998190163787E-061
   2.0799999999999990E-010     1.3246533812777806E-047
   2.1199999999999989E-010     1.3246533812785704E-047
   2.1600000000000008E-010     1.3246533812795224E-047
   2.2000000000000007E-010     1.3246533812801573E-047
   2.2400000000000005E-010     2.5423125672764532E-059
   2.2800000000000004E-010    -2.6493067625524094E-047
   2.3200000000000003E-010    -6.6232669063883653E-047
   2.3600000000000001E-010    -1.0597227050224629E-046
   2.4000000000000000E-010    -1.1921880431504174E-046
   2.4399999999999998E-010    -6.7139056040685579E-047
   2.4799999999999997E-010     2.4680293672170426E-047
   2.5199999999999996E-010     1.6948577863611931E-046
   2.5599999999999994E-010     3.4078433122564232E-046
   2.5999999999999993E-010     4.9974273697909740E-046
   2.6399999999999992E-010     6.0662139445810509E-046
   2.6799999999999990E-010     5.8284748776259349E-046
   2.7199999999999989E-010     3.2792019330565346E-046
   2.7600000000000008E-010    -1.3713886820243869E-046
   2.8000000000000007E-010    -7.7440286927660413E-046
   2.8400000000000005E-010    -1.4586906926579375E-045
   2.8800000000000004E-010    -2.1977774252437134E-045
   2.9200000000000003E-010    -2.6828432503493851E-045
   2.9600000000000001E-010    -1.4394874080719765E-045
   3.0000000000000000E-010     4.1463936765378690E-046
   3.0399999999999998E-010     3.0770827909443237E-045
   3.0799999999999997E-010     6.5905475302668472E-045
   3.1199999999999996E-010     1.0844665870029394E-044
   3.1599999999999994E-010     1.2748305006463015E-044
   3.1999999999999993E-010     1.1512527699778862E-044
   3.2399999999999992E-010     7.8783312590831005E-045
   3.2799999999999990E-010     8.9144125877165625E-046
   3.3199999999999989E-010    -9.0497080260032176E-045
   3.3600000000000008E-010    -2.2345647291502979E-044
   3.4000000000000007E-010    -3.6212802787431989E-044
   3.4400000000000005E-010    -4.7205241893969431E-044
   3.4800000000000004E-010    -5.3556115528819957E-044
   3.5200000000000003E-010    -4.8416918039516188E-044
   3.5600000000000001E-010    -3.1200741426642716E-044
   3.6000000000000000E-010     3.8320111888926364E-046
   3.6399999999999998E-010     4.4113040507612406E-044
   3.6799999999999997E-010     9.7475780289422435E-044
   3.7199999999999996E-010     1.5176158118970975E-043
   3.7599999999999994E-010     1.9482828496017942E-043
   3.7999999999999993E-010     2.1221000029684973E-043
   3.8399999999999991E-010     1.9023669217556028E-043
   3.8799999999999990E-010     1.1365947799871103E-043
   3.9199999999999989E-010    -2.0537655237822042E-044
   3.9599999999999987E-010    -2.0663071790922740E-043
   4.0000000000000007E-010    -4.2567297865628586E-043
   4.0400000000000005E-010    -6.4387899510391700E-043
   4.0800000000000004E-010    -8.1041633662593722E-043
   4.1200000000000002E-010    -8.6715613592157709E-043
   4.1600000000000001E-010    -7.5624216318417129E-043
   4.2000000000000000E-010    -4.3406720961865836E-043
   4.2399999999999998E-010     1.1658929531126656E-043
   4.2799999999999997E-010     8.7029853688427041E-043
   4.3199999999999996E-010     1.7435963267806379E-042
   4.3599999999999994E-010     2.5967178301552679E-042
   4.3999999999999993E-010     3.2403335586469244E-042
   4.4399999999999991E-010     3.4507390572747169E-042
   4.4799999999999990E-010     3.0072607819609618E-042
   4.5199999999999989E-010     1.7442825956520151E-042
   4.5599999999999987E-010    -3.9664210167654494E-043
   4.6000000000000007E-010    -3.3101390875505925E-042
   4.6400000000000005E-010    -6.6907713114731564E-042
   4.6800000000000004E-010    -1.0009284941001981E-041
   4.7200000000000002E-010    -1.2548718294264093E-041
   4.7600000000000001E-010    -1.3476480384345889E-041
   4.8000000000000000E-010    -1.1972701246480962E-041
   4.8399999999999998E-010    -7.4057591448490193E-042
   4.8799999999999997E-010     4.6562079548611424E-043
   4.9199999999999996E-010     1.1299177839833511E-041
   4.9599999999999994E-010     2.4014905384933302E-041
   4.9999999999999993E-010     3.6749216483187513E-041
   5.0399999999999991E-010     4.6928562729868146E-041
   5.0799999999999990E-010     5.1535658419189707E-041
   5.1199999999999989E-010     4.7545865743014456E-041
   5.1599999999999987E-010     3.2529124184457850E-041
   5.2000000000000007E-010     5.3479848435346522E-042
   5.2400000000000005E-010    -3.3144350349020013E-041
   5.2800000000000004E-010    -7.9556471965682727E-041
   5.3200000000000002E-010    -1.2770361715976771E-040
   5.3600000000000001E-010    -1.6881204992212903E-040
   5.4000000000000000E-010    -1.9229580348369176E-040
   5.4399999999999998E-010    -1.8714655425077143E-040
   5.4799999999999997E-010    -1.4390789261874665E-040
   5.5199999999999995E-010    -5.7019550735075223E-041
   5.5599999999999994E-010     7.2741356508946130E-041
   5.5999999999999993E-010     2.3618832199763660E-040
   5.6399999999999991E-010     4.1450315822372064E-040
   5.6799999999999990E-010     5.7939222021568827E-040
   5.7199999999999989E-010     6.9506684966193522E-040
   5.7599999999999987E-010     7.2226785661958007E-040
   5.8000000000000007E-010     6.2431375809188614E-040
   5.8400000000000005E-010     3.7473959855002549E-040
   5.8800000000000004E-010    -3.4341651682843703E-041
   5.9200000000000002E-010    -5.8438312928231012E-040
   5.9600000000000001E-010    -1.2246619686174684E-039
   6.0000000000000000E-010    -1.8703559646879994E-039
   6.0399999999999998E-010    -2.4060607957435503E-039
   6.0799999999999997E-010    -2.6959382475453991E-039
   6.1199999999999995E-010    -2.6009041651290026E-039
   6.1599999999999994E-010    -2.0022197817553020E-039
   6.1999999999999993E-010    -8.2948087437057060E-040
   6.2399999999999991E-010     9.1035946528420868E-040
   6.2799999999999990E-010     3.1076274632124920E-039
   6.3199999999999989E-010     5.5338198514322926E-039
   6.3599999999999987E-010     7.8406168125905275E-039
   6.4000000000000006E-010     9.5792758340494667E-039
   6.4400000000000005E-010     1.0243962721904488E-038
   6.4800000000000004E-010     9.3397116521826274E-039
   6.5200000000000002E-010     6.4717704819904024E-039
   6.5600000000000001E-010     1.4484110966956868E-039
   6.6000000000000000E-010    -5.6156978187536793E-039
   6.6399999999999978E-010    -1.4212905247923282E-038
   6.6800000000000017E-010    -2.3393224128707183E-038
   6.7200000000000016E-010    -3.1773360748965934E-038
   6.7600000000000015E-010    -3.7622729319725139E-038
   6.8000000000000013E-010    -3.9038415387152419E-038
   6.8400000000000012E-010    -3.4210221410273791E-038
   6.8800000000000011E-010    -2.1762105714140249E-038
   6.9200000000000009E-010    -1.1386479689765159E-039
   6.9600000000000008E-010     2.7013274040591024E-038
   7.0000000000000006E-010     6.0533972039135250E-038
   7.0400000000000005E-010     9.5589013498364861E-038
   7.0800000000000004E-010     1.2673501816176172E-037
   7.1200000000000002E-010     1.4728142711614349E-037
   7.1600000000000001E-010     1.4998997346694616E-037
   7.2000000000000000E-010     1.2811089953379815E-037
   7.2399999999999998E-010     7.6697523448032391E-038
   7.2799999999999997E-010    -5.9267890164781735E-039
   7.3199999999999995E-010    -1.1674460137140158E-037
   7.3599999999999994E-010    -2.4691917617082392E-037
   7.3999999999999993E-010    -3.8126168257295641E-037
   7.4399999999999991E-010    -4.9858545304971162E-037
   7.4799999999999990E-010    -5.7319290781499077E-037
   7.5199999999999988E-010    -5.7763422662235040E-037
   7.5599999999999987E-010    -4.8670963012629110E-037
   7.5999999999999986E-010    -2.8246696119484240E-037
   7.6399999999999984E-010     4.0303271773937131E-038
   7.6799999999999983E-010     4.6882826409613798E-037
   7.7199999999999982E-010     9.6833002624908095E-037
   7.7599999999999980E-010     1.4803025782723586E-036
   7.7999999999999979E-010     1.9241498938362131E-036
   7.8399999999999977E-010     2.2030405956038368E-036
   7.8800000000000017E-010     2.2144179151796837E-036
   7.9200000000000016E-010     1.8649796481388211E-036
   7.9600000000000015E-010     1.0891395261463923E-036
   8.0000000000000013E-010    -1.3091456953827726E-037
   8.0400000000000012E-010    -1.7463292798841565E-036
   8.0800000000000010E-010    -3.6273362576199359E-036
   8.1200000000000009E-010    -5.5574882830836570E-036
   8.1600000000000008E-010    -7.2400849618176450E-036
   8.2000000000000006E-010    -8.3197022054348549E-036
   8.2400000000000005E-010    -8.4202402853533891E-036
   8.2800000000000004E-010    -7.1986830086169510E-036
   8.3200000000000002E-010    -4.4109803353706038E-036
   8.3600000000000001E-010     1.6607558777971078E-038
   8.3999999999999999E-010     5.9203500426405650E-036
   8.4399999999999998E-010     1.2848077465197649E-035
   8.4799999999999997E-010     2.0037622837330750E-035
   8.5199999999999995E-010     2.6437355412606034E-035
   8.5599999999999994E-010     3.0778842574201130E-035
   8.5999999999999993E-010     3.1706577152021081E-035
   8.6399999999999991E-010     2.7962361324521305E-035
   8.6799999999999990E-010     1.8612646871960655E-035
   8.7199999999999988E-010     3.2969027333443983E-036
   8.7599999999999987E-010    -1.7534905962859384E-035
   8.7999999999999986E-010    -4.2435681377000825E-035
   8.8399999999999984E-010    -6.8869738581731308E-035
   8.8799999999999983E-010    -9.3259803437520241E-035
   8.9199999999999981E-010    -1.1120768693363313E-034
   8.9599999999999980E-010    -1.1790818168605765E-034
   8.9999999999999979E-010    -1.0875238212385301E-034
   9.0399999999999977E-010    -8.0087018354222933E-035
   9.0799999999999976E-010    -3.0062840012696396E-035
   9.1200000000000016E-010     4.0528022856033149E-035
   9.1600000000000015E-010     1.2755422526477035E-034
   9.2000000000000013E-010     2.2313271588158807E-034
   9.2400000000000012E-010     3.1564833982784515E-034
   9.2800000000000010E-010     3.9033261611967642E-034
   9.3200000000000009E-010     4.3048318308652456E-034
   9.3600000000000008E-010     4.1933692315804814E-034
   9.4000000000000006E-010     3.4251690186431389E-034
   9.4400000000000005E-010     1.9086763441522442E-034
   9.4800000000000004E-010    -3.6618148632811508E-035
   9.5200000000000002E-010    -3.3017792358912658E-034
   9.5600000000000001E-010    -6.6743150433629293E-034
   9.5999999999999999E-010    -1.0128016928196422E-033
   9.6399999999999998E-010    -1.3186597332534085E-033
   9.6799999999999997E-010    -1.5285405644779276E-033
   9.7199999999999995E-010    -1.5825785967765133E-033
   9.7599999999999994E-010    -1.4250433577368191E-033