  -1.2000000000000000E-009     0.0000000000000000     
  -1.1960000000000000E-009     0.0000000000000000     
  -1.1920000000000000E-009     0.0000000000000000     
  -1.1880000000000000E-009     0.0000000000000000     
  -1.1840000000000000E-009     0.0000000000000000     
  -1.1800000000000001E-009     0.0000000000000000     
  -1.1760000000000001E-009     0.0000000000000000     
  -1.1720000000000001E-009     0.0000000000000000     
  -1.1679999999999999E-009     0.0000000000000000     
  -1.1639999999999999E-009     0.0000000000000000     
  -1.1599999999999999E-009     0.0000000000000000     
  -1.1559999999999999E-009     0.0000000000000000     
  -1.1520000000000000E-009     0.0000000000000000     
  -1.1480000000000000E-009     0.0000000000000000     
  -1.1440000000000000E-009     0.0000000000000000     
  -1.1400000000000000E-009     0.0000000000000000     
  -1.1360000000000000E-009     0.0000000000000000     
  -1.1320000000000000E-009     0.0000000000000000     
  -1.1280000000000000E-009     0.0000000000000000     
  -1.1240000000000000E-009     0.0000000000000000     
  -1.1200000000000001E-009     0.0000000000000000     
  -1.1160000000000001E-009     0.0000000000000000     
  -1.1120000000000001E-009     0.0000000000000000     
  -1.1079999999999999E-009     0.0000000000000000     
  -1.1039999999999999E-009     0.0000000000000000     
  -1.0999999999999999E-009     0.0000000000000000     
  -1.0959999999999999E-009     0.0000000000000000     
  -1.0920000000000000E-009     0.0000000000000000     
  -1.0880000000000000E-009     0.0000000000000000     
  -1.0840000000000000E-009     0.0000000000000000     
  -1.0800000000000000E-009     0.0000000000000000     
  -1.0760000000000000E-009     0.0000000000000000     
  -1.0720000000000000E-009     0.0000000000000000     
  -1.0680000000000000E-009     0.0000000000000000     
  -1.0640000000000000E-009     0.0000000000000000     
  -1.0600000000000001E-009    -5.4905135320745963E-060
  -1.0560000000000001E-009    -5.4905135320745963E-060
  -1.0520000000000001E-009     5.4905135320745963E-060
  -1.0480000000000001E-009     4.9414621788671367E-059
  -1.0439999999999999E-009     1.3177232476979031E-058
  -1.0399999999999999E-009     2.1908405535522706E-058
  -1.0359999999999999E-009    -3.9211550570654205E-046
  -1.0320000000000000E-009    -9.1493617998248424E-046
  -1.0280000000000000E-009    -1.4377568542589312E-045
  -1.0240000000000000E-009    -1.1457162994493997E-045
  -1.0200000000000000E-009     7.1478627818636317E-046
  -1.0160000000000000E-009     5.8429180700452824E-045
  -1.0120000000000000E-009     1.5484470326472677E-044
  -1.0080000000000000E-009     2.9739517998369054E-044
  -1.0040000000000000E-009     4.2135903834049355E-044
  -1.0000000000000001E-009     3.8274877578406478E-044
  -9.9600000000000008E-010    -1.3691728034632354E-044
  -9.9199999999999988E-010    -1.5145355912005950E-043
  -9.8799999999999990E-010    -3.9964433123619777E-043
  -9.8399999999999991E-010    -7.3179357381388522E-043
  -9.7999999999999992E-010    -9.9882304170092654E-043
  -9.7599999999999994E-010    -8.6522034875789327E-043
  -9.7199999999999995E-010     2.1497809637384905E-043
  -9.6799999999999997E-010     2.8652841724726626E-042
  -9.6399999999999998E-010     7.4105348345564746E-042
  -9.5999999999999999E-010     1.3176331532084584E-041
  -9.5600000000000001E-010     1.7540583856791362E-041
  -9.5200000000000002E-010     1.5146134098406826E-041
  -9.4800000000000004E-010    -1.9623542108618170E-042
  -9.4400000000000005E-010    -4.2102833693441379E-041
  -9.4000000000000006E-010    -1.0847610152996092E-040
  -9.3600000000000008E-010    -1.9012879722484256E-040
  -9.3200000000000009E-010    -2.5108584533879785E-040
  -9.2800000000000000E-010    -2.2279454899230375E-040
  -9.2400000000000001E-010    -9.0257430286774179E-042
  -9.1999999999999992E-010     4.8499267041116258E-040
  -9.1599999999999994E-010     1.2893614785280144E-039
  -9.1199999999999995E-010     2.2728859707861837E-039
  -9.0799999999999997E-010     3.0355129001324527E-039
  -9.0399999999999998E-010     2.8442237144937680E-039
  -8.9999999999999999E-010     6.9999877499760145E-040
  -8.9600000000000001E-010    -4.3607642849561655E-039
  -8.9200000000000002E-010    -1.2656140206737271E-038
  -8.8800000000000004E-010    -2.2968726155599813E-038
  -8.8400000000000005E-010    -3.1596561247027902E-038
  -8.8000000000000006E-010    -3.1824857277249391E-038
  -8.7599999999999997E-010    -1.4544758451354446E-038
  -8.7199999999999999E-010     2.9171258732571740E-038
  -8.6800000000000000E-010     1.0300885373825692E-037
  -8.6400000000000001E-010     1.9817399309181607E-037
  -8.5999999999999993E-010     2.8574472150375192E-037
  -8.5599999999999994E-010     3.1225863437403340E-037
  -8.5199999999999995E-010     2.0387664030784212E-037
  -8.4799999999999997E-010    -1.1506880880795756E-037
  -8.4399999999999998E-010    -6.8541518500833845E-037
  -8.3999999999999999E-010    -1.4604788230480526E-036
  -8.3600000000000001E-010    -2.2492307408723260E-036
  -8.3200000000000002E-010    -2.6796355186957316E-036
  -8.2800000000000004E-010    -2.2175295014108447E-036
  -8.2400000000000005E-010    -2.7969474028538633E-037
  -8.2000000000000006E-010     3.5326481886205341E-036
  -8.1599999999999997E-010     9.0887501882271376E-036
  -8.1199999999999999E-010     1.5339741517571549E-035
  -8.0800000000000000E-010     2.0029809003440580E-035
  -8.0400000000000002E-010     1.9719481588992833E-035
  -7.9999999999999993E-010     1.0360100052364589E-035
  -7.9599999999999994E-010    -1.1401229955836149E-035
  -7.9199999999999995E-010    -4.6191967142980673E-035
  -7.8799999999999997E-010    -8.9487624086141250E-035
  -7.8399999999999998E-010    -1.2953592379629338E-034
  -7.7999999999999999E-010    -1.4678592525815117E-034
  -7.7600000000000001E-010    -1.1618701471846079E-034
  -7.7200000000000002E-010    -1.3507773660857716E-035
  -7.6800000000000004E-010     1.7402455563105169E-034
  -7.6400000000000005E-010     4.3403603450882259E-034
  -7.6000000000000006E-010     7.1568589577111440E-034
  -7.5600000000000008E-010     9.2236269135317585E-034
  -7.5199999999999999E-010     9.1751550114991964E-034
  -7.4800000000000000E-010     5.5035525311326342E-034
  -7.4400000000000002E-010    -2.9514630155201746E-034
  -7.3999999999999993E-010    -1.6313650870902442E-033
  -7.3599999999999994E-010    -3.2915984741314049E-033
  -7.3199999999999995E-010    -4.8726719189855513E-033
  -7.2799999999999997E-010    -5.7290951954130283E-033
  -7.2399999999999998E-010    -5.0541641930727070E-033
  -7.2000000000000000E-010    -2.0731493773187955E-033
  -7.1600000000000001E-010     3.6522021696660266E-033
  -7.1200000000000002E-010     1.1850056055257056E-032
  -7.0800000000000004E-010     2.1188807069192056E-032
  -7.0400000000000005E-010     2.9091683408228840E-032
  -6.9999999999999996E-010     3.1880567058257358E-032
  -6.9599999999999997E-010     2.5393897298965593E-032
  -6.9199999999999999E-010     6.1406763033213238E-033
  -6.8800000000000000E-010    -2.7099124428382804E-032
  -6.8400000000000002E-010    -7.1522910071415035E-032
  -6.8000000000000003E-010    -1.1891519312316780E-031
  -6.7600000000000004E-010    -1.5529200118777814E-031
  -6.7199999999999995E-010    -1.6227225685610120E-031
  -6.6799999999999997E-010    -1.2066367871481556E-031
  -6.6399999999999998E-010    -1.6275161609107443E-032
  -6.6000000000000000E-010     1.5275976808726864E-031
  -6.5600000000000001E-010     3.6873043205258226E-031
  -6.5200000000000002E-010     5.8953842905910688E-031
  -6.4800000000000004E-010     7.4911660600162822E-031
  -6.4400000000000005E-010     7.6559124724667766E-031
  -6.3999999999999996E-010     5.5848985935755279E-031
  -6.3599999999999998E-010     7.4092755157526581E-032
  -6.3199999999999999E-010    -6.8494383133686389E-031
  -6.2800000000000000E-010    -1.6327128910415966E-030
  -6.2400000000000002E-010    -2.5853744843005466E-030
  -6.2000000000000003E-010    -3.2687370327443625E-030
  -6.1600000000000004E-010    -3.3559946640121828E-030
  -6.1199999999999995E-010    -2.5379946967993542E-030
  -6.0799999999999997E-010    -6.1979101026736336E-031
  -6.0399999999999998E-010     2.3731955715779242E-030
  -6.0000000000000000E-010     6.1059114936201049E-030
  -5.9600000000000001E-010     9.8938458216143872E-030
  -5.9200000000000002E-010     1.2744134714471363E-029
  -5.8800000000000004E-010     1.3498423444162119E-029
  -5.8400000000000005E-010     1.1077504319437459E-029
  -5.7999999999999996E-010     4.7990437045215440E-030
  -5.7599999999999998E-010    -5.2913989854997100E-030
  -5.7199999999999999E-010    -1.8161110465136814E-029
  -5.6800000000000000E-010    -3.1697749427089736E-029
  -5.6400000000000002E-010    -4.2865088051139283E-029
  -5.6000000000000003E-010    -4.8147099679947393E-029
  -5.5600000000000004E-010    -4.4254424178699696E-029
  -5.5199999999999995E-010    -2.8987519548949124E-029
  -5.4799999999999997E-010    -2.0767459875617772E-030
  -5.4399999999999998E-010     3.4224878551532647E-029
  -5.4000000000000000E-010     7.5013068523892633E-029
  -5.3600000000000001E-010     1.1321103269088672E-028
  -5.3200000000000002E-010     1.4066237161553770E-028
  -5.2800000000000004E-010     1.4966917932976417E-028
  -5.2400000000000005E-010     1.3463631627028748E-028
  -5.1999999999999996E-010     9.3376963930555007E-029
  -5.1599999999999998E-010     2.7650041358069167E-029
  -5.1199999999999999E-010    -5.7327308208647291E-029
  -5.0800000000000000E-010    -1.5432583889497134E-028
  -5.0400000000000002E-010    -2.5603109043318428E-028
  -5.0000000000000003E-010    -3.5659493646499738E-028
  -4.9600000000000004E-010    -4.5177044659737519E-028
  -4.9199999999999996E-010    -5.3675802892314692E-028
  -4.8799999999999997E-010    -6.0151780561419904E-028
  -4.8399999999999998E-010    -6.2437743304611156E-028
  -4.8000000000000000E-010    -5.6610177379258622E-028
  -4.7600000000000001E-010    -3.6782850315793387E-028
  -4.7200000000000002E-010     4.3094177956149385E-029
  -4.6800000000000004E-010     7.3586011334412501E-028
  -4.6400000000000005E-010     1.7461514690403459E-027
  -4.5999999999999996E-010     3.0356935923051864E-027
  -4.5599999999999998E-010     4.4489545753670348E-027
  -4.5199999999999999E-010     5.6799544551567302E-027
  -4.4800000000000000E-010     6.2663166881051690E-027
  -4.4400000000000002E-010     5.6286583451444898E-027
  -4.4000000000000003E-010     3.1692972863976816E-027
  -4.3600000000000005E-010    -1.5661611120670287E-027
  -4.3199999999999996E-010    -8.6774699389202277E-027
  -4.2799999999999997E-010    -1.7682770809002032E-026
  -4.2399999999999998E-010    -2.7331598716959759E-026
  -4.2000000000000000E-010    -3.5529454918155135E-026
  -4.1600000000000001E-010    -3.9449370085583672E-026
  -4.1200000000000002E-010    -3.5891029077498643E-026
  -4.0800000000000004E-010    -2.1910501460602227E-026
  -4.0400000000000005E-010     4.3163459120506880E-027
  -3.9999999999999996E-010     4.2509783539191299E-026
  -3.9599999999999998E-010     8.9374198329844441E-026
  -3.9199999999999999E-010     1.3801476052061218E-025
  -3.8800000000000000E-010     1.7796616685666595E-025
  -3.8400000000000002E-010     1.9608461636231399E-025
  -3.8000000000000003E-010     1.7844864816981542E-025
  -3.7600000000000005E-010     1.1323338490590974E-025
  -3.7200000000000006E-010    -5.7191715235842197E-027
  -3.6799999999999997E-010    -1.7517882567060887E-025
  -3.6399999999999998E-010    -3.7944020293541003E-025
  -3.6000000000000000E-010    -5.8880384057743264E-025
  -3.5600000000000001E-010    -7.6054995288414391E-025
  -3.5200000000000003E-010    -8.4311045953211846E-025
  -3.4800000000000004E-010    -7.8369509539607058E-025
  -3.4400000000000005E-010    -5.3897024209874190E-025
  -3.3999999999999996E-010    -8.7597916746729586E-026
  -3.3599999999999998E-010     5.5735063751557550E-025
  -3.3199999999999999E-010     1.3387242416160693E-024
  -3.2800000000000000E-010     2.1512654993832717E-024
  -3.2400000000000002E-010     2.8459042003199124E-024
  -3.2000000000000003E-010     3.2442070735655328E-024
  -3.1600000000000005E-010     3.1633561140565639E-024
  -3.1200000000000006E-010     2.4500648762095775E-024
  -3.0799999999999997E-010     1.0196173868896998E-024
  -3.0399999999999998E-010    -1.1058891836455362E-024
  -3.0000000000000000E-010    -3.7675750405371057E-024
  -2.9600000000000001E-010    -6.6561190959787655E-024
  -2.9200000000000003E-010    -9.3216441954953561E-024
  -2.8800000000000004E-010    -1.1212034705375497E-023
  -2.8400000000000005E-010    -1.1740731426929747E-023
  -2.7999999999999996E-010    -1.0380043945675739E-023
  -2.7599999999999998E-010    -6.7704880442508447E-024
  -2.7199999999999999E-010    -8.3146564149685121E-025
  -2.6800000000000011E-010     7.1452856248964460E-024
  -2.6399999999999992E-010     1.6439663582228814E-023
  -2.5999999999999993E-010     2.5903377002255752E-023
  -2.5599999999999994E-010     3.4030282753384981E-023
  -2.5199999999999996E-010     3.9102730018882201E-023
  -2.4799999999999997E-010     3.9408960160450315E-023
  -2.4399999999999998E-010     3.3514396474874056E-023
  -2.4000000000000000E-010     2.0557602581771076E-023
  -2.3600000000000001E-010     5.3172402346226070E-025
  -2.3200000000000003E-010    -2.5494017256950996E-023
  -2.2800000000000004E-010    -5.5258712073076471E-023
  -2.2400000000000005E-010    -8.5340447741543678E-023
  -2.2000000000000007E-010    -1.1136112455913092E-022
  -2.1600000000000008E-010    -1.2837507069684840E-022
  -2.1200000000000010E-010    -1.3142787651350257E-022
  -2.0800000000000011E-010    -1.1624698172672704E-022
  -2.0399999999999992E-010    -8.0000590371456355E-023
  -1.9999999999999993E-010    -2.2040384179796588E-023
  -1.9599999999999994E-010     5.5471129834086269E-023
  -1.9199999999999996E-010     1.4715327876794847E-022
  -1.8799999999999997E-010     2.4431917115402210E-022
  -1.8399999999999998E-010     3.3528773036419673E-022
  -1.8000000000000000E-010     4.0614697777851744E-022
  -1.7600000000000001E-010     4.4197757918620718E-022
  -1.7200000000000003E-010     4.2849478328438579E-022
  -1.6800000000000004E-010     3.5401035641923220E-022
  -1.6400000000000005E-010     2.1155725228214123E-022
  -1.6000000000000007E-010     9.6621026662300120E-025
  -1.5600000000000008E-010    -2.6936072796865888E-022
  -1.5200000000000010E-010    -5.8126072659256622E-022
  -1.4800000000000011E-010    -9.0648839901413931E-022
  -1.4399999999999992E-010    -1.2075161397241864E-021
  -1.3999999999999993E-010    -1.4396486278502598E-021
  -1.3599999999999994E-010    -1.5545415947364998E-021
  -1.3199999999999996E-010    -1.5050789061594325E-021
  -1.2799999999999997E-010    -1.2513928501256178E-021
  -1.2399999999999999E-010    -7.6762746161656810E-022
  -1.2000000000000000E-010    -4.8850659761044339E-023
  -1.1600000000000001E-010     8.8265056248394566E-022
  -1.1200000000000003E-010     1.9725930481453108E-021
  -1.0800000000000004E-010     3.1324050877739895E-021
  -1.0400000000000005E-010     4.2403551642785246E-021
  -1.0000000000000007E-010     5.1468979439416532E-021
  -9.6000000000000082E-011     5.6847602118680674E-021
  -9.2000000000000096E-011     5.6838769685786912E-021
  -8.8000000000000110E-011     4.9907683953731697E-021
  -8.3999999999999917E-011     3.4913050550252692E-021
  -7.9999999999999931E-011     1.1351469559862993E-021
  -7.5999999999999944E-011    -2.0405282626910258E-021
  -7.1999999999999958E-011    -5.8909720509151107E-021
  -6.7999999999999972E-011    -1.0150820409260675E-020
  -6.3999999999999986E-011    -1.4431504930229125E-020
  -6.0000000000000000E-011    -1.8232316984604563E-020
  -5.6000000000000013E-011    -2.0967580483248758E-020
  -5.2000000000000027E-011    -2.2011239075998745E-020
  -4.8000000000000041E-011    -2.0758466495649293E-020
  -4.4000000000000055E-011    -1.6701852849907973E-020
  -4.0000000000000069E-011    -9.5173455558896052E-021
  -3.6000000000000082E-011     8.4733244720560942E-022
  -3.2000000000000096E-011     1.4091311612008405E-020
  -2.8000000000000110E-011     2.9497565279008501E-020
  -2.3999999999999917E-011     4.5900447110100201E-020
  -1.9999999999999931E-011     6.1695839710411555E-020
  -1.5999999999999945E-011     7.4904082664807592E-020
  -1.1999999999999959E-011     8.3292700557196144E-020
  -7.9999999999999724E-012     8.4560788495297497E-020
  -3.9999999999999862E-012     7.6580435380347836E-020
   0.0000000000000000          5.7682870974469206E-020
   3.9999999999999862E-012     2.6968755993702461E-020
   7.9999999999999724E-012    -1.5385828028800780E-020
   1.1999999999999959E-011    -6.7863076025659874E-020
   1.5999999999999945E-011    -1.2741635663484764E-019
   1.9999999999999931E-011    -1.8940308868373638E-019
   2.3999999999999917E-011    -2.4767536880976940E-019
   2.7999999999999903E-011    -2.9485735460922632E-019
   3.1999999999999889E-011    -3.2282616155242031E-019
   3.6000000000000082E-011    -3.2339413167264042E-019
   4.0000000000000069E-011    -2.8916883864536955E-019
   4.4000000000000055E-011    -2.1454224690738854E-019
   4.8000000000000041E-011    -9.6736063831610354E-020
   5.2000000000000027E-011     6.3192982533058173E-020
   5.6000000000000013E-011     2.5950213230604141E-019
   6.0000000000000000E-011     4.8118948019933948E-019
   6.3999999999999986E-011     7.1182266313645709E-019
   6.7999999999999972E-011     9.2987951458308371E-019
   7.1999999999999958E-011     1.1096849967647398E-018
   7.5999999999999944E-011     1.2229863648918009E-018
   7.9999999999999931E-011     1.2411567075008492E-018
   8.3999999999999917E-011     1.1379512606060717E-018
   8.7999999999999903E-011     8.9267391287895703E-019
   9.1999999999999889E-011     4.9353877098746669E-019
   9.6000000000000082E-011    -5.9050306130504245E-020
   1.0000000000000007E-010    -7.4963185101555651E-019
   1.0400000000000005E-010    -1.5455898748464847E-018
   1.0800000000000004E-010    -2.3961917392598839E-018
   1.1200000000000003E-010    -3.2330980016482532E-018
   1.1600000000000001E-010    -3.9726171571688875E-018
   1.2000000000000000E-010    -4.5198801703911690E-018
   1.2399999999999999E-010    -4.7749773422927172E-018
   1.2799999999999997E-010    -4.6409353316653883E-018
   1.3199999999999996E-010    -4.0332304631261314E-018
   1.3599999999999994E-010    -2.8903385782547272E-018
   1.3999999999999993E-010    -1.1846388983453495E-018
   1.4399999999999992E-010     1.0671943329347796E-018
   1.4799999999999990E-010     3.7953032191837162E-018
   1.5199999999999989E-010     6.8703359994237699E-018
   1.5600000000000008E-010     1.0100810330306941E-017
   1.6000000000000007E-010     1.3235170302104672E-017
   1.6400000000000005E-010     1.5969402564236013E-017
   1.6800000000000004E-010     1.7960814828125776E-017
   1.7200000000000003E-010     1.8848220141618467E-017
   1.7600000000000001E-010     1.8278320217399495E-017
   1.8000000000000000E-010     1.5937543424179031E-017
   1.8399999999999998E-010     1.1588000360936659E-017
   1.8799999999999997E-010     5.1056009064758438E-018
   1.9199999999999996E-010    -3.4822386318607715E-018
   1.9599999999999994E-010    -1.3962431160216948E-017
   1.9999999999999993E-010    -2.5909178500057645E-017
   2.0399999999999992E-010    -3.8667882572581934E-017
   2.0799999999999990E-010    -5.1353919035052437E-017
   2.1199999999999989E-010    -6.2869909789682450E-017
   2.1600000000000008E-010    -7.1944522636575048E-017
   2.2000000000000007E-010    -7.7194875633755900E-017
   2.2400000000000005E-010    -7.7213187039220090E-017
   2.2800000000000004E-010    -7.0676587044528755E-017
   2.3200000000000003E-010    -5.6476790286194367E-017
   2.3600000000000001E-010    -3.3864046303251195E-017
   2.4000000000000000E-010    -2.5970498849863715E-018
   2.4399999999999998E-010     3.6911753488249724E-017
   2.4799999999999997E-010     8.3468579021989441E-017
   2.5199999999999996E-010     1.3500295750350339E-016
   2.5599999999999994E-010     1.8852046801070416E-016
   2.5999999999999993E-010     2.4011885758649298E-016
   2.6399999999999992E-010     2.8508195995657319E-016
   2.6799999999999990E-010     3.1806226038869753E-016
   2.7199999999999989E-010     3.3335907693431763E-016
   2.7600000000000008E-010     3.2529242735285556E-016
   2.8000000000000007E-010     2.8866549290551911E-016
   2.8400000000000005E-010     2.1929928734938391E-016
   2.8800000000000004E-010     1.1461340961587999E-016
   2.9200000000000003E-010    -2.5782506805573906E-017
   2.9600000000000001E-010    -1.9953218141971094E-016
   3.0000000000000000E-010    -4.0106271365644278E-016
   3.0399999999999998E-010    -6.2125904465745474E-016
   3.0799999999999997E-010    -8.4734160452822665E-016
   3.1199999999999996E-010    -1.0630025509919094E-015
   3.1599999999999994E-010    -1.2488478925361091E-015
   3.1999999999999993E-010    -1.3831803318502871E-015
   3.2399999999999992E-010    -1.4431355120921211E-015
   3.2799999999999990E-010    -1.4061619498941544E-015
   3.3199999999999989E-010    -1.2518060802041736E-015
   3.3600000000000008E-010    -9.6373125306166813E-016
   3.4000000000000007E-010    -5.3186575109378077E-016
   3.4400000000000005E-010     4.5452376410846028E-017
   3.4800000000000004E-010     7.5949734268411915E-016
   3.5200000000000003E-010     1.5895251341663656E-015
   3.5600000000000001E-010     2.5016816460517016E-015
   3.6000000000000000E-010     3.4486399256659591E-015
   3.6399999999999998E-010     4.3701371592488949E-015
   3.6799999999999997E-010     5.1945521168194860E-015
   3.7199999999999996E-010     5.8416154212264291E-015
   3.7599999999999994E-010     6.2262767061464426E-015
   3.7999999999999993E-010     6.2636824761977405E-015
   3.8399999999999991E-010     5.8751278526216507E-015
   3.8799999999999990E-010     4.9947528658850298E-015
   3.9199999999999989E-010     3.5766693069591951E-015
   3.9599999999999987E-010     1.6021099558969267E-015
   4.0000000000000007E-010    -9.1386717303157620E-016
   4.0400000000000005E-010    -3.9166447427177288E-015
   4.0800000000000004E-010    -7.3078246810127409E-015
   4.1200000000000002E-010    -1.0943058041662600E-014
   4.1600000000000001E-010    -1.4632409316758326E-014
   4.2000000000000000E-010    -1.8143674297689991E-014
   4.2399999999999998E-010    -2.1208930396066013E-014
   4.2799999999999997E-010    -2.3534458436218955E-014
   4.3199999999999996E-010    -2.4813991014418173E-014
   4.3599999999999994E-010    -2.4745042296417484E-014
   4.3999999999999993E-010    -2.3047870107297432E-014
   4.4399999999999991E-010    -1.9486403657478887E-014
   4.4799999999999990E-010    -1.3890287828077077E-014
   4.5199999999999989E-010    -6.1770394912963548E-015
   4.5599999999999987E-010     3.6268132777621220E-015
   4.6000000000000007E-010     1.5366810600773846E-014
   4.6400000000000005E-010     2.8745010991982402E-014
   4.6800000000000004E-010     4.3308979533775185E-014
   4.7200000000000002E-010     5.8446259129309112E-014
   4.7600000000000001E-010     7.3385064483474871E-014
   4.8000000000000000E-010     8.7201756337048618E-014
   4.8399999999999998E-010     9.8835141451240551E-014
   4.8799999999999997E-010     1.0710747774776098E-013
   4.9199999999999996E-010     1.1075147737213030E-013
   4.9599999999999994E-010     1.0844237267558177E-013
   4.9999999999999993E-010     9.8833616881956059E-014
   5.0399999999999991E-010     8.0594553147508868E-014
   5.0799999999999990E-010     5.2447937274178161E-014
   5.1199999999999989E-010     1.3205461691292911E-014
   5.1599999999999987E-010    -3.8201326430543500E-014
   5.2000000000000007E-010    -1.0269647171498674E-013
   5.2400000000000005E-010    -1.8104379375989009E-013
   5.2800000000000004E-010    -2.7384123417012924E-013
   5.3200000000000002E-010    -3.8152689121494064E-013
   5.3600000000000001E-010    -5.0439740328968444E-013
   5.4000000000000000E-010    -6.4263881533991612E-013
   5.4399999999999998E-010    -7.9636979399572015E-013
   5.4799999999999997E-010    -9.6569612707035270E-013
   5.5199999999999995E-010    -1.1507737272657290E-012
   5.5599999999999994E-010    -1.3518797111460083E-012
   5.5999999999999993E-010    -1.5694871487469912E-012
   5.6399999999999991E-010    -1.8043404296504704E-012
   5.6799999999999990E-010    -2.0575287603756630E-012
   5.7199999999999989E-010    -2.3305531192539428E-012
   5.7599999999999987E-010    -2.6253838356549531E-012
   5.8000000000000007E-010    -2.9445056128162498E-012
   5.8400000000000005E-010    -3.2909476117291820E-012
   5.8800000000000004E-010    -3.6682972962341460E-012
   5.9200000000000002E-010    -4.0806945561611133E-012
   5.9600000000000001E-010    -4.5328109307914712E-012
   6.0000000000000000E-010    -5.0298095288880705E-012
   6.0399999999999998E-010    -5.5772898284831342E-012
   6.0799999999999997E-010    -6.1812255473754074E-012
   6.1199999999999995E-010    -6.8478863469125521E-012
   6.1599999999999994E-010    -7.5837635273161510E-012
   6.1999999999999993E-010    -8.3954940212878870E-012
   6.2399999999999991E-010    -9.2897926064762063E-012
   6.2799999999999990E-010    -1.0273395090914018E-011
   6.3199999999999989E-010    -1.1353016323147260E-011
   6.3599999999999987E-010    -1.2535335583890065E-011
   6.4000000000000006E-010    -1.3826999792403883E-011
   6.4400000000000005E-010    -1.5234653942483977E-011
   6.4800000000000004E-010    -1.6765001978882393E-011
   6.5200000000000002E-010    -1.8424892358945682E-011
   6.5600000000000001E-010    -2.0221430059431054E-011
   6.6000000000000000E-010    -2.2162107705317866E-011
   6.6399999999999978E-010    -2.4254958416952265E-011
   6.6800000000000017E-010    -2.6508718312956040E-011
   6.7200000000000016E-010    -2.8933003585538317E-011
   6.7600000000000015E-010    -3.1538482333077933E-011
   6.8000000000000013E-010    -3.4337042072000740E-011
   6.8400000000000012E-010    -3.7341955506698546E-011
   6.8800000000000011E-010    -4.0568028313902901E-011
   6.9200000000000009E-010    -4.4031722376753777E-011
   6.9600000000000008E-010    -4.7751275150686609E-011
   7.0000000000000006E-010    -5.1746780764347797E-011
   7.0400000000000005E-010    -5.6040242250155953E-011
   7.0800000000000004E-010    -6.0655639867313926E-011
   7.1200000000000002E-010    -6.5618929609338020E-011
   7.1600000000000001E-010    -7.0958042051860218E-011
   7.2000000000000000E-010    -7.6702893821461913E-011
   7.2399999999999998E-010    -8.2885319686447325E-011
   7.2799999999999997E-010    -8.9539082195382331E-011
   7.3199999999999995E-010    -9.6699801260523501E-011
   7.3599999999999994E-010    -1.0440494002961730E-010
   7.3999999999999993E-010    -1.1269376738913940E-010
   7.4399999999999991E-010    -1.2160735404183894E-010
   7.4799999999999990E-010    -1.3118855120801236E-010
   7.5199999999999988E-010    -1.4148201757701711E-010
   7.5599999999999987E-010    -1.5253427176292696E-010
   7.5999999999999986E-010    -1.6439377325404628E-010
   7.6399999999999984E-010    -1.7711103550562284E-010
   7.6799999999999983E-010    -1.9073874847263299E-010
   7.7199999999999982E-010    -2.0533203783723570E-010
   7.7599999999999980E-010    -2.2094866494348195E-010
   7.7999999999999979E-010    -2.3764933182997458E-010
   7.8399999999999977E-010    -2.5549806318783439E-010
   7.8800000000000017E-010    -2.7456254930280572E-010
   7.9200000000000016E-010    -2.9491462188001467E-010
   7.9600000000000015E-010    -3.1663068424793822E-010
   8.0000000000000013E-010    -3.3979229462050092E-010
   8.0400000000000012E-010    -3.6448647668290166E-010
   8.0800000000000010E-010    -3.9080641288762941E-010
   8.1200000000000009E-010    -4.1885184761457347E-010
   8.1600000000000008E-010    -4.4872946154204631E-010
   8.2000000000000006E-010    -4.8055325775827385E-010
   8.2400000000000005E-010    -5.1444498168583471E-010
   8.2800000000000004E-010    -5.5053414347411349E-010
   8.3200000000000002E-010    -5.8895828405234199E-010
   8.3600000000000001E-010    -6.2986299518190512E-010
   8.3999999999999999E-010    -6.7340163188514895E-010
   8.4399999999999998E-010    -7.1973548982116852E-010
   8.4799999999999997E-010    -7.6903347366715959E-010
   8.5199999999999995E-010    -8.2147174557638739E-010
   8.5599999999999994E-010    -8.7723369230341705E-010
   8.5999999999999993E-010    -9.3650953869205139E-010
   8.6399999999999991E-010    -9.9949639646383328E-010
   8.6799999999999990E-010    -1.0663980156081979E-009
   8.7199999999999988E-010    -1.1374251657689439E-009
   8.7599999999999987E-010    -1.2127957693218008E-009
   8.7999999999999986E-010    -1.2927351699098845E-009
   8.8399999999999984E-010    -1.3774771892530034E-009
   8.8799999999999983E-010    -1.4672645443270204E-009
   8.9199999999999981E-010    -1.5623502024017536E-009
   8.9599999999999980E-010    -1.6629977578911435E-009
   8.9999999999999979E-010    -1.7694835747763089E-009
   9.0399999999999977E-010    -1.8820974090498162E-009
   9.0799999999999976E-010    -2.0011434541217465E-009
   9.1200000000000016E-010    -2.1269420138559117E-009
   9.1600000000000015E-010    -2.2598302659565590E-009
   9.2000000000000013E-010    -2.4001629263988573E-009
   9.2400000000000012E-010    -2.5483126573634401E-009
   9.2800000000000010E-010    -2.7046710878195408E-009
   9.3200000000000009E-010    -2.8696485278348690E-009
   9.3600000000000008E-010    -3.0436744619413570E-009
   9.4000000000000006E-010    -3.2271958400112040E-009
   9.4400000000000005E-010    -3.4206785733987804E-009
   9.4800000000000004E-010    -3.6246049304476386E-009
   9.5200000000000002E-010    -3.8394746451409091E-009
   9.5600000000000001E-010    -4.0658029428647382E-009
   9.5999999999999999E-010    -4.3041214799792032E-009
   9.6399999999999998E-010    -4.5549762901405009E-009
   9.6799999999999997E-010    -4.8189293179660318E-009
   9.7199999999999995E-010    -5.0965568087859876E-009
   9.7599999999999994E-010    -5.3884499376126042E-009