  -1.2000000000000000E-009     0.0000000000000000     
  -1.1960000000000000E-009     0.0000000000000000     
  -1.1920000000000000E-009     0.0000000000000000     
  -1.1880000000000000E-009     0.0000000000000000     
  -1.1840000000000000E-009     0.0000000000000000     
  -1.1800000000000001E-009     0.0000000000000000     
  -1.1760000000000001E-009     0.0000000000000000     
  -1.1720000000000001E-009     0.0000000000000000     
  -1.1679999999999999E-009     0.0000000000000000     
  -1.1639999999999999E-009     0.0000000000000000     
  -1.1599999999999999E-009     0.0000000000000000     
  -1.1559999999999999E-009     0.0000000000000000     
  -1.1520000000000000E-009     0.0000000000000000     
  -1.1480000000000000E-009     0.0000000000000000     
  -1.1440000000000000E-009     0.0000000000000000     
  -1.1400000000000000E-009     0.0000000000000000     
  -1.1360000000000000E-009     0.0000000000000000     
  -1.1320000000000000E-009     0.0000000000000000     
  -1.1280000000000000E-009     0.0000000000000000     
  -1.1240000000000000E-009     0.0000000000000000     
  -1.1200000000000001E-009     0.0000000000000000     
  -1.1160000000000001E-009     0.0000000000000000     
  -1.1120000000000001E-009     0.0000000000000000     
  -1.1079999999999999E-009     0.0000000000000000     
  -1.1039999999999999E-009     0.0000000000000000     
  -1.0999999999999999E-009     0.0000000000000000     
  -1.0959999999999999E-009     0.0000000000000000     
  -1.0920000000000000E-009     0.0000000000000000     
  -1.0880000000000000E-009     0.0000000000000000     
  -1.0840000000000000E-009     0.0000000000000000     
  -1.0800000000000000E-009     0.0000000000000000     
  -1.0760000000000000E-009     0.0000000000000000     
  -1.0720000000000000E-009     0.0000000000000000     
  -1.0680000000000000E-009     0.0000000000000000     
  -1.0640000000000000E-009     0.0000000000000000     
  -1.0600000000000001E-009     0.0000000000000000     
  -1.0560000000000001E-009     0.0000000000000000     
  -1.0520000000000001E-009     0.0000000000000000     
  -1.0480000000000001E-009     0.0000000000000000     
  -1.0439999999999999E-009     0.0000000000000000     
  -1.0399999999999999E-009     0.0000000000000000     
  -1.0359999999999999E-009     0.0000000000000000     
  -1.0320000000000000E-009     0.0000000000000000     
  -1.0280000000000000E-009     0.0000000000000000     
  -1.0240000000000000E-009     0.0000000000000000     
  -1.0200000000000000E-009     0.0000000000000000     
  -1.0160000000000000E-009     0.0000000000000000     
  -1.0120000000000000E-009     0.0000000000000000     
  -1.0080000000000000E-009     0.0000000000000000     
  -1.0040000000000000E-009     0.0000000000000000     
  -1.0000000000000001E-009     0.0000000000000000     
  -9.9600000000000008E-010     0.0000000000000000     
  -9.9199999999999988E-010     0.0000000000000000     
  -9.8799999999999990E-010     0.0000000000000000     
  -9.8399999999999991E-010     0.0000000000000000     
  -9.7999999999999992E-010     0.0000000000000000     
  -9.7599999999999994E-010     0.0000000000000000     
  -9.7199999999999995E-010     0.0000000000000000     
  -9.6799999999999997E-010     0.0000000000000000     
  -9.6399999999999998E-010     0.0000000000000000     
  -9.5999999999999999E-010     0.0000000000000000     
  -9.5600000000000001E-010     0.0000000000000000     
  -9.5200000000000002E-010     0.0000000000000000     
  -9.4800000000000004E-010     0.0000000000000000     
  -9.4400000000000005E-010     0.0000000000000000     
  -9.4000000000000006E-010     0.0000000000000000     
  -9.3600000000000008E-010     0.0000000000000000     
  -9.3200000000000009E-010     0.0000000000000000     
  -9.2800000000000000E-010     0.0000000000000000     
  -9.2400000000000001E-010     0.0000000000000000     
  -9.1999999999999992E-010     0.0000000000000000     
  -9.1599999999999994E-010     0.0000000000000000     
  -9.1199999999999995E-010     0.0000000000000000     
  -9.0799999999999997E-010     0.0000000000000000     
  -9.0399999999999998E-010     0.0000000000000000     
  -8.9999999999999999E-010     0.0000000000000000     
  -8.9600000000000001E-010     0.0000000000000000     
  -8.9200000000000002E-010     0.0000000000000000     
  -8.8800000000000004E-010     0.0000000000000000     
  -8.8400000000000005E-010     0.0000000000000000     
  -8.8000000000000006E-010     0.0000000000000000     
  -8.7599999999999997E-010     0.0000000000000000     
  -8.7199999999999999E-010     0.0000000000000000     
  -8.6800000000000000E-010     0.0000000000000000     
  -8.6400000000000001E-010     0.0000000000000000     
  -8.5999999999999993E-010     0.0000000000000000     
  -8.5599999999999994E-010     0.0000000000000000     
  -8.5199999999999995E-010     0.0000000000000000     
  -8.4799999999999997E-010     0.0000000000000000     
  -8.4399999999999998E-010     0.0000000000000000     
  -8.3999999999999999E-010     0.0000000000000000     
  -8.3600000000000001E-010     0.0000000000000000     
  -8.3200000000000002E-010     0.0000000000000000     
  -8.2800000000000004E-010     0.0000000000000000     
  -8.2400000000000005E-010     0.0000000000000000     
  -8.2000000000000006E-010     0.0000000000000000     
  -8.1599999999999997E-010     0.0000000000000000     
  -8.1199999999999999E-010     0.0000000000000000     
  -8.0800000000000000E-010     0.0000000000000000     
  -8.0400000000000002E-010     0.0000000000000000     
  -7.9999999999999993E-010     0.0000000000000000     
  -7.9599999999999994E-010     0.0000000000000000     
  -7.9199999999999995E-010     0.0000000000000000     
  -7.8799999999999997E-010     0.0000000000000000     
  -7.8399999999999998E-010     0.0000000000000000     
  -7.7999999999999999E-010     0.0000000000000000     
  -7.7600000000000001E-010     0.0000000000000000     
  -7.7200000000000002E-010     0.0000000000000000     
  -7.6800000000000004E-010     0.0000000000000000     
  -7.6400000000000005E-010     0.0000000000000000     
  -7.6000000000000006E-010     0.0000000000000000     
  -7.5600000000000008E-010     0.0000000000000000     
  -7.5199999999999999E-010     0.0000000000000000     
  -7.4800000000000000E-010     0.0000000000000000     
  -7.4400000000000002E-010     0.0000000000000000     
  -7.3999999999999993E-010     0.0000000000000000     
  -7.3599999999999994E-010     0.0000000000000000     
  -7.3199999999999995E-010     0.0000000000000000     
  -7.2799999999999997E-010     0.0000000000000000     
  -7.2399999999999998E-010     0.0000000000000000     
  -7.2000000000000000E-010     0.0000000000000000     
  -7.1600000000000001E-010     0.0000000000000000     
  -7.1200000000000002E-010     3.6797058455477030E-047
  -7.0800000000000004E-010     1.1039117536643109E-046
  -7.0400000000000005E-010     1.8398529227738515E-046
  -6.9999999999999996E-010     1.8398529227738515E-046
  -6.9599999999999997E-010     1.1039117536643109E-046
  -6.9199999999999999E-010    -2.3678180218062708E-046
  -6.8800000000000000E-010    -8.0473713046054743E-046
  -6.8400000000000002E-010    -1.3566930072927029E-045
  -6.8000000000000003E-010    -1.6926646889519434E-045
  -6.7600000000000004E-010    -1.6446663346086487E-045
  -6.7199999999999995E-010    -7.1833673289385248E-046
  -6.6799999999999997E-010     2.7384757998243729E-045
  -6.6399999999999998E-010     6.1462077695038950E-045
  -6.6000000000000000E-010     1.0136289534143179E-044
  -6.5600000000000001E-010     1.1009246394588017E-044
  -6.5200000000000002E-010     8.2379945098351231E-045
  -6.4800000000000004E-010    -7.1465721810921960E-046
  -6.4400000000000005E-010    -1.6745150450160893E-044
  -6.3999999999999996E-010    -3.8351696902681813E-044
  -6.3599999999999998E-010    -6.3010322066868830E-044
  -6.3199999999999999E-010    -8.0747618252828023E-044
  -6.2800000000000000E-010    -7.7654078800620978E-044
  -6.2400000000000002E-010    -3.8873690306687421E-044
  -6.2000000000000003E-010     4.6905448439598783E-044
  -6.1600000000000004E-010     1.7764812916987443E-043
  -6.1199999999999995E-010     3.3605697516680017E-043
  -6.0799999999999997E-010     4.7680900811700659E-043
  -6.0399999999999998E-010     5.3324190683274143E-043
  -6.0000000000000000E-010     4.1908550125837138E-043
  -5.9600000000000001E-010     5.7120114977000409E-044
  -5.9200000000000002E-010    -5.8805716324029749E-043
  -5.8800000000000004E-010    -1.4668814299073547E-042
  -5.8400000000000005E-010    -2.4032009611349962E-042
  -5.7999999999999996E-010    -3.0785467813565843E-042
  -5.7599999999999998E-010    -3.0550611116314613E-042
  -5.7199999999999999E-010    -1.8645782857296162E-042
  -5.6800000000000000E-010     8.3383938447872270E-043
  -5.6400000000000002E-010     5.0488854368765252E-042
  -5.6000000000000003E-010     1.0238347703040447E-041
  -5.5600000000000004E-010     1.5154404624659443E-041
  -5.5199999999999995E-010     1.7844911030344852E-041
  -5.4799999999999997E-010     1.5925836153179275E-041
  -5.4399999999999998E-010     7.1501290532778862E-042
  -5.4000000000000000E-010    -9.7052534693055806E-042
  -5.3600000000000001E-010    -3.3804057905615466E-041
  -5.3200000000000002E-010    -6.1307966988522599E-041
  -5.2800000000000004E-010    -8.4931610877900933E-041
  -5.2400000000000005E-010    -9.4407350393289710E-041
  -5.1999999999999996E-010    -7.8219018211667372E-041
  -5.1599999999999998E-010    -2.6716045004844108E-041
  -5.1199999999999999E-010     6.3697379859173455E-041
  -5.0800000000000000E-010     1.8608022139229143E-040
  -5.0400000000000002E-010     3.1951415595350069E-040
  -5.0000000000000003E-010     4.2829904717809791E-040
  -4.9600000000000004E-010     4.6537758759092945E-040
  -4.9199999999999996E-010     3.8095464876684445E-040
  -4.8799999999999997E-010     1.3614938563726832E-040
  -4.8399999999999998E-010    -2.8014781623034748E-040
  -4.8000000000000000E-010    -8.3476103633419104E-040
  -4.7600000000000001E-010    -1.4390298685291626E-039
  -4.7200000000000002E-010    -1.9483413276338442E-039
  -4.6800000000000004E-010    -2.1768220959794624E-039
  -4.6400000000000005E-010    -1.9289700155020186E-039
  -4.5999999999999996E-010    -1.0460006380849367E-039
  -4.5599999999999998E-010     5.3996139892576878E-040
  -4.5199999999999999E-010     2.7546134550642326E-039
  -4.4800000000000000E-010     5.3458063528565818E-039
  -4.4400000000000002E-010     7.8749153816837356E-039
  -4.4000000000000003E-010     9.7422265950596728E-039
  -4.3600000000000005E-010     1.0246745283755074E-038
  -4.3199999999999996E-010     8.6745559034486421E-039
  -4.2799999999999997E-010     4.4069821574052315E-039
  -4.2399999999999998E-010    -2.9573305681172217E-039
  -4.2000000000000000E-010    -1.3463509437195502E-038
  -4.1600000000000001E-010    -2.6630888691614684E-038
  -4.1200000000000002E-010    -4.1234286798578112E-038
  -4.0800000000000004E-010    -5.5030758059849790E-038
  -4.0400000000000005E-010    -6.4468519589759884E-038
  -3.9999999999999996E-010    -6.4490357863086613E-038
  -3.9599999999999998E-010    -4.8643010249206311E-038
  -3.9199999999999999E-010    -9.7967621767553156E-039
  -3.8800000000000000E-010     5.8187495774548663E-038
  -3.8400000000000002E-010     1.5760074602102319E-037
  -3.8000000000000003E-010     2.8288250148616535E-037
  -3.7600000000000005E-010     4.1603016102893654E-037
  -3.7200000000000006E-010     5.2268264440990647E-037
  -3.6799999999999997E-010     5.5089364288451987E-037
  -3.6399999999999998E-010     4.3515248951333934E-037
  -3.6000000000000000E-010     1.0818652823468102E-037
  -3.5600000000000001E-010    -4.7790796865386749E-037
  -3.5200000000000003E-010    -1.3218982786256804E-036
  -3.4800000000000004E-010    -2.3392376839237241E-036
  -3.4400000000000005E-010    -3.3321148438177671E-036
  -3.3999999999999996E-010    -3.9766957619145261E-036
  -3.3599999999999998E-010    -3.8431998419859304E-036
  -3.3199999999999999E-010    -2.4635434677486965E-036
  -3.2800000000000000E-010     5.4511984998594926E-037
  -3.2400000000000002E-010     5.3057255405267382E-036
  -3.2000000000000003E-010     1.1479737891286732E-035
  -3.1600000000000005E-010     1.8086229883699383E-035
  -3.1200000000000006E-010     2.3410929742703580E-035
  -3.0799999999999997E-010     2.5087050453054000E-035
  -3.0399999999999998E-010     2.0423693722601730E-035
  -3.0000000000000000E-010     7.0245627248930211E-036
  -2.9600000000000001E-010    -1.6324984401617291E-035
  -2.9200000000000003E-010    -4.8618373017976759E-035
  -2.8800000000000004E-010    -8.5661565798579285E-035
  -2.8400000000000005E-010    -1.1950754800870849E-034
  -2.7999999999999996E-010    -1.3867710786652896E-034
  -2.7599999999999998E-010    -1.2952625412266486E-034
  -2.7199999999999999E-010    -7.8976027159462069E-035
  -2.6800000000000011E-010     2.1461260930238655E-035
  -2.6399999999999992E-010     1.7083317733666507E-034
  -2.5999999999999993E-010     3.5402749707153930E-034
  -2.5599999999999994E-010     5.3857952521505700E-034
  -2.5199999999999996E-010     6.7467697506270398E-034
  -2.4799999999999997E-010     6.9996886443050432E-034
  -2.4399999999999998E-010     5.5024152466713802E-034
  -2.4000000000000000E-010     1.7592488484064815E-034
  -2.3600000000000001E-010    -4.3722451230574802E-034
  -2.3200000000000003E-010    -1.2468450311834737E-033
  -2.2800000000000004E-010    -2.1375343077377474E-033
  -2.2400000000000005E-010    -2.9159503120375400E-033
  -2.2000000000000007E-010    -3.3241736976666009E-033
  -2.1600000000000008E-010    -3.0763225817568748E-033
  -2.1200000000000010E-010    -1.9195576727247031E-033
  -2.0800000000000011E-010     2.8523648202336715E-034
  -2.0399999999999992E-010     3.4750365526749815E-033
  -1.9999999999999993E-010     7.3077698210203959E-033
  -1.9599999999999994E-010     1.1121644067316416E-032
  -1.9199999999999996E-010     1.3957016355344140E-032
  -1.8799999999999997E-010     1.4662620975734152E-032
  -1.8399999999999998E-010     1.2096093334971830E-032
  -1.8000000000000000E-010     5.4094404618044019E-033
  -1.7600000000000001E-010    -5.6149090104602505E-033
  -1.7200000000000003E-010    -2.0238569495484851E-032
  -1.6800000000000004E-010    -3.6535835327663810E-032
  -1.6400000000000005E-010    -5.1351413288509768E-032
  -1.6000000000000007E-010    -6.0534881733388454E-032
  -1.5600000000000008E-010    -5.9508268578615645E-032
  -1.5200000000000010E-010    -4.4166147028003744E-032
  -1.4800000000000011E-010    -1.2028952454234146E-032
  -1.4399999999999992E-010     3.6520245322566628E-032
  -1.3999999999999993E-010     9.7169899548634063E-032
  -1.3599999999999994E-010     1.6109709307314502E-031
  -1.3199999999999996E-010     2.1518625694082876E-031
  -1.2799999999999997E-010     2.4330458663665475E-031
  -1.2399999999999999E-010     2.2874428521831362E-031
  -1.2000000000000000E-010     1.5771950918905058E-031
  -1.1600000000000001E-010     2.3530477309160521E-032
  -1.1200000000000003E-010    -1.6928077279731509E-031
  -1.0800000000000004E-010    -4.0169588332279263E-031
  -1.0400000000000005E-010    -6.3894087804883476E-031
  -1.0000000000000007E-010    -8.3213268003862830E-031
  -9.6000000000000082E-011    -9.2352798849587773E-031
  -9.2000000000000096E-011    -8.5551512972874080E-031
  -8.8000000000000110E-011    -5.8274532511742796E-031
  -8.3999999999999917E-011    -8.5940980962648267E-032
  -7.9999999999999931E-011     6.1491379635010405E-031
  -7.5999999999999944E-011     1.4509184883676722E-030
  -7.1999999999999958E-011     2.3012755887929457E-030
  -6.7999999999999972E-011     2.9997775116910488E-030
  -6.3999999999999986E-011     3.3525388520787757E-030
  -6.0000000000000000E-011     3.1670707488035378E-030
  -5.6000000000000013E-011     2.2905967876235343E-030
  -5.2000000000000027E-011     6.5305644518749104E-031
  -4.8000000000000041E-011    -1.6920400013340233E-030
  -4.4000000000000055E-011    -4.5373820250607673E-030
  -4.0000000000000069E-011    -7.5112371935000515E-030
  -3.6000000000000082E-011    -1.0094389306580258E-029
  -3.2000000000000096E-011    -1.1669790499268863E-029
  -2.8000000000000110E-011    -1.1605572658143831E-029
  -2.3999999999999917E-011    -9.3661927130827406E-030
  -1.9999999999999931E-011    -4.6399731850222281E-030
  -1.5999999999999945E-011     2.5349066419676842E-030
  -1.1999999999999959E-011     1.1668624664240299E-029
  -7.9999999999999724E-012     2.1766855006757788E-029
  -3.9999999999999862E-012     3.1349956580312253E-029
   0.0000000000000000          3.8561450111391633E-029
   3.9999999999999862E-012     4.1372776784409113E-029
   7.9999999999999724E-012     3.7877321327794286E-029
   1.1999999999999959E-011     2.6650189090767331E-029
   1.5999999999999945E-011     7.1333196123096218E-030
   1.9999999999999931E-011    -2.0009427315210161E-029
   2.3999999999999917E-011    -5.2632789443336748E-029
   2.7999999999999903E-011    -8.7014507276920610E-029
   3.1999999999999889E-011    -1.1798519826894685E-028
   3.6000000000000082E-011    -1.3932726334497749E-028
   4.0000000000000069E-011    -1.4445759061932104E-028
   4.4000000000000055E-011    -1.2736980604725214E-028
   4.8000000000000041E-011    -8.3765945478465255E-029
   5.2000000000000027E-011    -1.2259117550253187E-029
   5.6000000000000013E-011     8.4515601072586378E-029
   6.0000000000000000E-011     1.9907852282914402E-028
   6.3999999999999986E-011     3.1878174766948104E-028
   6.7999999999999972E-011     4.2618357177320856E-028
   7.1999999999999958E-011     5.0027527353417710E-028
   7.5999999999999944E-011     5.1863360686760791E-028
   7.9999999999999931E-011     4.6045659355894871E-028
   8.3999999999999917E-011     3.1029348713413721E-028
   8.7999999999999903E-011     6.2117292953101684E-029
   9.1999999999999889E-011    -2.7677341972476980E-028
   9.6000000000000082E-011    -6.8267220393782979E-028
   1.0000000000000007E-010    -1.1139292546647866E-027
   1.0400000000000005E-010    -1.5116833752159452E-027
   1.0800000000000004E-010    -1.8034633935717283E-027
   1.1200000000000003E-010    -1.9100101603128780E-027
   1.1600000000000001E-010    -1.7552864873895831E-027
   1.2000000000000000E-010    -1.2791439954214450E-027
   1.2399999999999999E-010    -4.5153959849987111E-028
   1.2799999999999997E-010     7.1338931272750104E-028
   1.3199999999999996E-010     2.1455862627666291E-027
   1.3599999999999994E-010     3.7121878387005670E-027
   1.3999999999999993E-010     5.2180378410298418E-027
   1.4399999999999992E-010     6.4157911181537707E-027
   1.4799999999999990E-010     7.0270166774736561E-027
   1.5199999999999989E-010     6.7744483040266939E-027
   1.5600000000000008E-010     5.4238975899755804E-027
   1.6000000000000007E-010     2.8324456184436320E-027
   1.6400000000000005E-010    -1.0024175108721408E-027
   1.6800000000000004E-010    -5.8997261905764093E-027
   1.7200000000000003E-010    -1.1466220299318648E-026
   1.7600000000000001E-010    -1.7090184172248668E-026
   1.8000000000000000E-010    -2.1965439166975436E-026
   1.8399999999999998E-010    -2.5150709724434539E-026
   1.8799999999999997E-010    -2.5665891889773093E-026
   1.9199999999999996E-010    -2.2621886005326263E-026
   1.9599999999999994E-010    -1.5374880936882159E-026
   1.9999999999999993E-010    -3.6900098328697930E-027
   2.0399999999999992E-010     1.2106193631624521E-026
   2.0799999999999990E-010     3.1009092823379332E-026
   2.1199999999999989E-010     5.1281218325549311E-026
   2.1600000000000008E-010     7.0484148311563284E-026
   2.2000000000000007E-010     8.5616331297370974E-026
   2.2400000000000005E-010     9.3366769062634027E-026
   2.2800000000000004E-010     9.0481415551186643E-026
   2.3200000000000003E-010     7.4223140131690859E-026
   2.3600000000000001E-010     4.2888554131843313E-026
   2.4000000000000000E-010    -3.6720015075382074E-027
   2.4399999999999998E-010    -6.3599353876593793E-026
   2.4799999999999997E-010    -1.3271244495480606E-025
   2.5199999999999996E-010    -2.0441568375374807E-025
   2.5599999999999994E-010    -2.6989685152544144E-025
   2.5999999999999993E-010    -3.1866640523964067E-025
   2.6399999999999992E-010    -3.3945881975768881E-025
   2.6799999999999990E-010    -3.2147567897047263E-025
   2.7199999999999989E-010    -2.5590324784835869E-025
   2.7600000000000008E-010    -1.3758553697807144E-025
   2.8000000000000007E-010     3.3315081737923356E-026
   2.8400000000000005E-010     2.4987854906033515E-025
   2.8800000000000004E-010     4.9744372857659372E-025
   2.9200000000000003E-010     7.5331983852067140E-025
   2.9600000000000001E-010     9.8740877123614553E-025
   3.0000000000000000E-010     1.1639009998575255E-024
   3.0399999999999998E-010     1.2441207807136888E-024
   3.0799999999999997E-010     1.1904826974421759E-024
   3.1199999999999996E-010     9.7138019376164204E-025
   3.1599999999999994E-010     5.6667261755829766E-025
   3.1999999999999993E-010    -2.6716057821322117E-026
   3.2399999999999992E-010    -7.8971449091428791E-025
   3.2799999999999990E-010    -1.6772667084517541E-024
   3.3199999999999989E-010    -2.6165198900198580E-024
   3.3600000000000008E-010    -3.5077882872711720E-024
   3.4000000000000007E-010    -4.2289312894552910E-024
   3.4400000000000005E-010    -4.6435633216145924E-024
   3.4800000000000004E-010    -4.6131915956740480E-024
   3.5200000000000003E-010    -4.0129644636839679E-024
   3.5600000000000001E-010    -2.7502120558211116E-024
   3.6000000000000000E-010    -7.8442749204725215E-025
   3.6399999999999998E-010     1.8531996414436597E-024
   3.6799999999999997E-010     5.0430616413525740E-024
   3.7199999999999996E-010     8.5659236902406453E-024
   3.7599999999999994E-010     1.2100063400717186E-023
   3.7999999999999993E-010     1.5229454609788088E-023
   3.8399999999999991E-010     1.7465185555597494E-023
   3.8799999999999990E-010     1.8281449953894386E-023
   3.9199999999999989E-010     1.7166121282030717E-023
   3.9599999999999987E-010     1.3684317759722058E-023
   4.0000000000000007E-010     7.5513621406321277E-024
   4.0400000000000005E-010    -1.2905382248224320E-024
   4.0800000000000004E-010    -1.2599657760503770E-023
   4.1200000000000002E-010    -2.5775718274901511E-023
   4.1600000000000001E-010    -3.9825215200011297E-023
   4.2000000000000000E-010    -5.3362181533804178E-023
   4.2399999999999998E-010    -6.4654584952489080E-023
   4.2799999999999997E-010    -7.1724287695484757E-023
   4.3199999999999996E-010    -7.2504504652322151E-023
   4.3599999999999994E-010    -6.5053311566725333E-023
   4.3999999999999993E-010    -4.7814667152796892E-023
   4.4399999999999991E-010    -1.9910627150915847E-023
   4.4799999999999990E-010     1.8560131940907319E-023
   4.5199999999999989E-010     6.6250002724170492E-023
   4.5599999999999987E-010     1.2035551214866786E-022
   4.6000000000000007E-010     1.7651827964566441E-022
   4.6400000000000005E-010     2.2887635292614996E-022
   4.6800000000000004E-010     2.7030293661359272E-022
   4.7200000000000002E-010     2.9285858923037317E-022
   4.7600000000000001E-010     2.8846572013179128E-022
   4.8000000000000000E-010     2.4979122209105512E-022
   4.8399999999999998E-010     1.7129498490496113E-022
   4.8799999999999997E-010     5.0371616286621626E-023
   4.9199999999999996E-010    -1.1151861142159663E-022
   4.9599999999999994E-010    -3.0786098368764600E-022
   4.9999999999999993E-010    -5.2639146891254516E-022
   5.0399999999999991E-010    -7.4885577224887525E-022
   5.0799999999999990E-010    -9.5137506244053046E-022
   5.1199999999999989E-010    -1.1055448208035380E-021
   5.1599999999999987E-010    -1.1803437609460245E-021
   5.2000000000000007E-010    -1.1448626675721462E-021
   5.2400000000000005E-010    -9.7177086029351430E-022
   5.2800000000000004E-010    -6.4133614426586018E-022
   5.3200000000000002E-010    -1.4570290042304437E-022
   5.3600000000000001E-010     5.0697425977042786E-022
   5.4000000000000000E-010     1.2890343955085748E-021
   5.4399999999999998E-010     2.1510046588355196E-021
   5.4799999999999997E-010     3.0210526759022502E-021
   5.5199999999999995E-010     3.8067216780677146E-021
   5.5599999999999994E-010     4.3993635537790503E-021
   5.5999999999999993E-010     4.6814952547662510E-021
   5.6399999999999991E-010     4.5370595117426939E-021
   5.6799999999999990E-010     3.8642378305780254E-021
   5.7199999999999989E-010     2.5901196876750854E-021
   5.7599999999999987E-010     6.8614561975354332E-022
   5.8000000000000007E-010    -1.8171090824977902E-021
   5.8400000000000005E-010    -4.8175361116957317E-021
   5.8800000000000004E-010    -8.1333865748528986E-021
   5.9200000000000002E-010    -1.1501399192204407E-020
   5.9600000000000001E-010    -1.4582925368301358E-020
   6.0000000000000000E-010    -1.6979447198347051E-020
   6.0399999999999998E-010    -1.8258243700855397E-020
   6.0799999999999997E-010    -1.7988103317083438E-020
   6.1199999999999995E-010    -1.5783965405388480E-020
   6.1599999999999994E-010    -1.1358136999422165E-020
   6.1999999999999993E-010    -4.5745638385861578E-021
   6.2399999999999991E-010     4.4985903869996825E-021
   6.2799999999999990E-010     1.5543724916852492E-020
   6.3199999999999989E-010     2.7962277998060374E-020
   6.3599999999999987E-010     4.0863376135799360E-020
   6.4000000000000006E-010     5.3078675754975095E-020
   6.4400000000000005E-010     6.3208317709652840E-020
   6.4800000000000004E-010     6.9701017737762218E-020
   6.5200000000000002E-010     7.0968657755253629E-020
   6.5600000000000001E-010     6.5532648039572763E-020
   6.6000000000000000E-010     5.2195430090661961E-020
   6.6399999999999978E-010     3.0226646781358018E-020
   6.6800000000000017E-010    -4.5032242442630414E-022
   6.7200000000000016E-010    -3.9089210219047217E-020
   6.7600000000000015E-010    -8.3989269461880259E-020
   6.8000000000000013E-010    -1.3242258052006673E-019
   6.8400000000000012E-010    -1.8064095217877438E-019
   6.8800000000000011E-010    -2.2398055647512792E-019
   6.9200000000000009E-010    -2.5707752726172505E-019
   6.9600000000000008E-010    -2.7420042124767085E-019
   7.0000000000000006E-010    -2.6969620895281220E-019
   7.0400000000000005E-010    -2.3853522654516569E-019
   7.0800000000000004E-010    -1.7692826180386983E-019
   7.1200000000000002E-010    -8.2976179742857486E-020
   7.1600000000000001E-010     4.2699297987651037E-020
   7.2000000000000000E-010     1.9640511690305605E-019
   7.2399999999999998E-010     3.7097466812859634E-019
   7.2799999999999997E-010     5.5558426139644608E-019
   7.3199999999999995E-010     7.3585471494531016E-019
   7.3599999999999994E-010     8.9429494307768821E-019
   7.3999999999999993E-010     1.0111259558720856E-018
   7.4399999999999991E-010     1.0655011129433622E-018
   7.4799999999999990E-010     1.0371038419390597E-018
   7.5199999999999988E-010     9.0807203092146219E-019
   7.5599999999999987E-010     6.6515362157760269E-019
   7.5999999999999986E-010     3.0196066502272285E-019
   7.6399999999999984E-010    -1.7885124007783525E-019
   7.6799999999999983E-010    -7.6368170089758645E-019
   7.7199999999999982E-010    -1.4265889253024232E-018
   7.7599999999999980E-010    -2.1286306258153558E-018
   7.7999999999999979E-010    -2.8181640604690299E-018
   7.8399999999999977E-010    -3.4322963224491729E-018
   7.8800000000000017E-010    -3.8996215189685533E-018
   7.9200000000000016E-010    -4.1443034750082627E-018
   7.9600000000000015E-010    -4.0914640254844358E-018
   8.0000000000000013E-010    -3.6737194456385832E-018
   8.0400000000000012E-010    -2.8385811607812206E-018
   8.0800000000000010E-010    -1.5562998206198481E-018
   8.1200000000000009E-010     1.7239180640388413E-019
   8.1600000000000008E-010     2.3092970162777581E-018
   8.2000000000000006E-010     4.7732714122514731E-018
   8.2400000000000005E-010     7.4370140527133349E-018
   8.2800000000000004E-010     1.0126898064716528E-017
   8.3200000000000002E-010     1.2626521188033901E-017
   8.3600000000000001E-010     1.4684514432504478E-017
   8.3999999999999999E-010     1.6026920561602320E-017
   8.4399999999999998E-010     1.6374135744347971E-017
   8.4799999999999997E-010     1.5462106333033566E-017
   8.5199999999999995E-010     1.3066999745026567E-017
   8.5599999999999994E-010     9.0321730957187087E-018
   8.5999999999999993E-010     3.2958344563641401E-018
   8.6399999999999991E-010    -4.0826320467364664E-018
   8.6799999999999990E-010    -1.2900005839992350E-017
   8.7199999999999988E-010    -2.2792771659489909E-017
   8.7599999999999987E-010    -3.3229510415442972E-017
   8.7999999999999986E-010    -4.3514555821058913E-017
   8.8399999999999984E-010    -5.2805142456605589E-017
   8.8799999999999983E-010    -6.0143548980777071E-017
   8.9199999999999981E-010    -6.4505049644741585E-017
   8.9599999999999980E-010    -6.4861403292152823E-017
   8.9999999999999979E-010    -6.0258363371752009E-017
   9.0399999999999977E-010    -4.9904448677799513E-017
   9.0799999999999976E-010    -3.3266691024039342E-017
   9.1200000000000016E-010    -1.0167666593515233E-017
   9.1600000000000015E-010     1.9122998341135109E-017
   9.2000000000000013E-010     5.3810626439986553E-017
   9.2400000000000012E-010     9.2519528419117528E-017
   9.2800000000000010E-010     1.3326771895127873E-016
   9.3200000000000009E-010     1.7348063595342870E-016
   9.3600000000000008E-010     2.1005085570345697E-016
   9.4000000000000006E-010     2.3944909999111362E-016
   9.4400000000000005E-010     2.5788913648348152E-016
   9.4800000000000004E-010     2.6154577602704952E-016
   9.5200000000000002E-010     2.4682166617756436E-016
   9.5600000000000001E-010     2.1065356529530323E-016
   9.5999999999999999E-010     1.5084488156866742E-016
   9.6399999999999998E-010     6.6406313010345392E-017
   9.6799999999999997E-010    -4.2117381070769432E-017
   9.7199999999999995E-010    -1.7236008534919316E-016
   9.7599999999999994E-010    -3.1991441644926005E-016