  -1.2000000000000000E-009     0.0000000000000000     
  -1.1960000000000000E-009     0.0000000000000000     
  -1.1920000000000000E-009     0.0000000000000000     
  -1.1880000000000000E-009     0.0000000000000000     
  -1.1840000000000000E-009     4.9141851890818370E-021
  -1.1800000000000001E-009     4.0795582033329712E-020
  -1.1760000000000001E-009     1.8445029356146301E-019
  -1.1720000000000001E-009     5.9876952693889330E-019
  -1.1679999999999999E-009     1.5542460187809185E-018
  -1.1639999999999999E-009     3.4085297719564115E-018
  -1.1599999999999999E-009     6.5161845453923445E-018
  -1.1559999999999999E-009     1.1053948168337334E-017
  -1.1520000000000000E-009     1.6773276457545453E-017
  -1.1480000000000000E-009     2.2728030325276402E-017
  -1.1440000000000000E-009     2.7062875461896357E-017
  -1.1400000000000000E-009     2.6976195031908799E-017
  -1.1360000000000000E-009     1.8977576155007010E-017
  -1.1320000000000000E-009    -4.6738156369845426E-019
  -1.1280000000000000E-009    -3.3880539006595908E-017
  -1.1240000000000000E-009    -8.1388470192294528E-017
  -1.1200000000000001E-009    -1.3923954020862135E-016
  -1.1160000000000001E-009    -1.9859442008696477E-016
  -1.1120000000000001E-009    -2.4507900049933615E-016
  -1.1079999999999999E-009    -2.5962376784989292E-016
  -1.1039999999999999E-009    -2.2101805528275121E-016
  -1.0999999999999999E-009    -1.1034294553654216E-016
  -1.0959999999999999E-009     8.2991745449232250E-017
  -1.0920000000000000E-009     3.5445072824406986E-016
  -1.0880000000000000E-009     6.7826086779886581E-016
  -1.0840000000000000E-009     1.0038987509968086E-015
  -1.0800000000000000E-009     1.2572495279152053E-015
  -1.0760000000000000E-009     1.3481713559111327E-015
  -1.0720000000000000E-009     1.1852557669928666E-015
  -1.0680000000000000E-009     6.9704508000625710E-016
  -1.0640000000000000E-009    -1.4296461427877802E-016
  -1.0600000000000001E-009    -1.2921800715881648E-015
  -1.0560000000000001E-009    -2.6217805007252185E-015
  -1.0520000000000001E-009    -3.9132555072332021E-015
  -1.0480000000000001E-009    -4.8742945267510319E-015
  -1.0439999999999999E-009    -5.1770271490264764E-015
  -1.0399999999999999E-009    -4.5173734729997348E-015
  -1.0359999999999999E-009    -2.6889982905577172E-015
  -1.0320000000000000E-009     3.3993480164451423E-016
  -1.0280000000000000E-009     4.3631313386587299E-015
  -1.0240000000000000E-009     8.9032394675993677E-015
  -1.0200000000000000E-009     1.3225423728691466E-014
  -1.0160000000000000E-009     1.6407579028950375E-014
  -1.0120000000000000E-009     1.7468081195430238E-014
  -1.0080000000000000E-009     1.5540453995296808E-014
  -1.0040000000000000E-009     1.0072375410341005E-014
  -1.0000000000000001E-009     1.0165142329215001E-015
  -9.9600000000000008E-010    -1.1024812978448312E-014
  -9.9199999999999988E-010    -2.4738414470448815E-014
  -9.8799999999999990E-010    -3.8151700740126830E-014
  -9.8399999999999991E-010    -4.8811387787534873E-014
  -9.7999999999999992E-010    -5.4084226881685604E-014
  -9.7599999999999994E-010    -5.1552673442923307E-014
  -9.7199999999999995E-010    -3.9458143730535827E-014
  -9.6799999999999997E-010    -1.7129441051904291E-014
  -9.6399999999999998E-010     1.4672970786465224E-014
  -9.5999999999999999E-010     5.3562938757609141E-014
  -9.5600000000000001E-010     9.5537462967791716E-014
  -9.5200000000000002E-010     1.3521880941463217E-013
  -9.4800000000000004E-010     1.6633173050942614E-013
  -9.4400000000000005E-010     1.8238681601269855E-013
  -9.4000000000000006E-010     1.7751153277701261E-013
  -9.3600000000000008E-010     1.4734577028372466E-013
  -9.3200000000000009E-010     8.9901889494280510E-014
  -9.2800000000000000E-010     6.2818876650353382E-015
  -9.2400000000000001E-010    -9.8853389160887341E-014
  -9.1999999999999992E-010    -2.1715474863819642E-013
  -9.1599999999999994E-010    -3.3686405576909298E-013
  -9.1199999999999995E-010    -4.4354028133873850E-013
  -9.0799999999999997E-010    -5.2122995928255769E-013
  -9.0399999999999998E-010    -5.5403475751818383E-013
  -8.9999999999999999E-010    -5.2797882222478821E-013
  -8.9600000000000001E-010    -4.3303087894383517E-013
  -8.9200000000000002E-010    -2.6509208023076301E-013
  -8.8800000000000004E-010    -2.7730979803393613E-014
  -8.8400000000000005E-010     2.6656480556741320E-013
  -8.8000000000000006E-010     5.9583533465915759E-013
  -8.7599999999999997E-010     9.2896363376413024E-013
  -8.7199999999999999E-010     1.2269537411902636E-012
  -8.6800000000000000E-010     1.4451659796428875E-012
  -8.6400000000000001E-010     1.5363827897408181E-012
  -8.5999999999999993E-010     1.4544606370078918E-012
  -8.5599999999999994E-010     1.1582171269795416E-012
  -8.5199999999999995E-010     6.1513079206150937E-013
  -8.4799999999999997E-010    -1.9559437212638054E-013
  -8.4399999999999998E-010    -1.2810155069746552E-012
  -8.3999999999999999E-010    -2.6338120394418748E-012
  -8.3600000000000001E-010    -4.2332054247751225E-012
  -8.3200000000000002E-010    -6.0474445705942609E-012
  -8.2800000000000004E-010    -8.0376734544618575E-012
  -8.2400000000000005E-010    -1.0162824983288343E-011
  -8.2000000000000006E-010    -1.2385047983131619E-011
  -8.1599999999999997E-010    -1.4675085752456403E-011
  -8.1199999999999999E-010    -1.7017033146600848E-011
  -8.0800000000000000E-010    -1.9411929769807620E-011
  -8.0400000000000002E-010    -2.1879806387710595E-011
  -7.9999999999999993E-010    -2.4459943035055386E-011
  -7.9599999999999994E-010    -2.7209307432310502E-011
  -7.9199999999999995E-010    -3.0199350645869294E-011
  -7.8799999999999997E-010    -3.3511489104568014E-011
  -7.8399999999999998E-010    -3.7231783747875691E-011
  -7.7999999999999999E-010    -4.1445357096215747E-011
  -7.7600000000000001E-010    -4.6231187447315072E-011
  -7.7200000000000002E-010    -5.1657833737937526E-011
  -7.6800000000000004E-010    -5.7780589735150201E-011
  -7.6400000000000005E-010    -6.4640404113642024E-011
  -7.6000000000000006E-010    -7.2264788469627620E-011
  -7.5600000000000008E-010    -8.0670660472642198E-011
  -7.5199999999999999E-010    -8.9868909521731472E-011
  -7.4800000000000000E-010    -9.9870294775783411E-011
  -7.4400000000000002E-010    -1.1069201792296684E-010
  -7.3999999999999993E-010    -1.2236433560309517E-010
  -7.3599999999999994E-010    -1.3493643151297145E-010
  -7.3199999999999995E-010    -1.4848074460236939E-010
  -7.2799999999999997E-010    -1.6309526033087696E-010
  -7.2399999999999998E-010    -1.7890326521831019E-010
  -7.2000000000000000E-010    -1.9605053794236709E-010
  -7.1600000000000001E-010    -2.1470004721112379E-010
  -7.1200000000000002E-010    -2.3502489635217319E-010
  -7.0800000000000004E-010    -2.5720011264297541E-010
  -7.0400000000000005E-010    -2.8139440115099432E-010
  -6.9999999999999996E-010    -3.0776291277295283E-010
  -6.9599999999999997E-010    -3.3644209468484311E-010
  -6.9199999999999999E-010    -3.6754755207553521E-010
  -6.8800000000000000E-010    -4.0117524239016371E-010
  -6.8400000000000002E-010    -4.3740633745089030E-010
  -6.8000000000000003E-010    -4.7631553866644356E-010
  -6.7600000000000004E-010    -5.1798220902833454E-010
  -6.7199999999999995E-010    -5.6250305329217802E-010
  -6.6799999999999997E-010    -6.1000567365251700E-010
  -6.6399999999999998E-010    -6.6066146391487995E-010
  -6.6000000000000000E-010    -7.1469642663489975E-010
  -6.5600000000000001E-010    -7.7239958072520644E-010
  -6.5200000000000002E-010    -8.3412723805472577E-010
  -6.4800000000000004E-010    -9.0030312475193148E-010
  -6.4400000000000005E-010    -9.7141473252627870E-010
  -6.3999999999999996E-010    -1.0480047571717347E-009
  -6.3599999999999998E-010    -1.1306596004144743E-009
  -6.3199999999999999E-010    -1.2199949301604247E-009
  -6.2800000000000000E-010    -1.3166396087432484E-009
  -6.2400000000000002E-010    -1.4212189229091637E-009
  -6.2000000000000003E-010    -1.5343396206681418E-009
  -6.1600000000000004E-010    -1.6565764647274925E-009
  -6.1199999999999995E-010    -1.7884635718548204E-009
  -6.0799999999999997E-010    -1.9304901933012628E-009
  -6.0399999999999998E-010    -2.0831028172148297E-009
  -6.0000000000000000E-010    -2.2467134721697331E-009
  -5.9600000000000001E-010    -2.4217151327113341E-009
  -5.9200000000000002E-010    -2.6085027424416106E-009
  -5.8800000000000004E-010    -2.8074992507018159E-009
  -5.8400000000000005E-010    -3.0191844608932685E-009
  -5.7999999999999996E-010    -3.2441258257272464E-009
  -5.7599999999999998E-010    -3.4830079538117017E-009
  -5.7199999999999999E-010    -3.7366580417985721E-009
  -5.6800000000000000E-010    -4.0060660459278039E-009
  -5.6400000000000002E-010    -4.2923979392115795E-009
  -5.6000000000000003E-010    -4.5969994088171369E-009
  -5.5600000000000004E-010    -4.9213898172931008E-009
  -5.5199999999999995E-010    -5.2672486376225466E-009
  -5.4799999999999997E-010    -5.6363903560818565E-009
  -5.4399999999999998E-010    -6.0307361698874152E-009
  -5.4000000000000000E-010    -6.4522779846957870E-009
  -5.3600000000000001E-010    -6.9030414750465722E-009
  -5.3200000000000002E-010    -7.3850503609424522E-009
  -5.2800000000000004E-010    -7.9002931566908005E-009
  -5.2400000000000005E-010    -8.4507003476955711E-009
  -5.1999999999999996E-010    -9.0381273064331247E-009
  -5.1599999999999998E-010    -9.6643517227292252E-009
  -5.1199999999999999E-010    -1.0331083918133622E-008
  -5.0800000000000000E-010    -1.1039991754493774E-008
  -5.0400000000000002E-010    -1.1792737457522912E-008
  -5.0000000000000003E-010    -1.2591025718949924E-008
  -4.9600000000000004E-010    -1.3436662193095682E-008
  -4.9199999999999996E-010    -1.4331613105342963E-008
  -4.8799999999999997E-010    -1.5278064648056633E-008
  -4.8399999999999998E-010    -1.6278479839720422E-008
  -4.8000000000000000E-010    -1.7335642245742418E-008
  -4.7600000000000001E-010    -1.8452686532619389E-008
  -4.7200000000000002E-010    -1.9633110427462151E-008
  -4.6800000000000004E-010    -2.0880773987482326E-008
  -4.6400000000000005E-010    -2.2199869027756249E-008
  -4.5999999999999996E-010    -2.3594883669709594E-008
  -4.5599999999999998E-010    -2.5070548384316068E-008
  -4.5199999999999999E-010    -2.6631780078960735E-008
  -4.4800000000000000E-010    -2.8283611576252517E-008
  -4.4400000000000002E-010    -3.0031139990771560E-008
  -4.4000000000000003E-010    -3.1879469807578164E-008
  -4.3600000000000005E-010    -3.3833683983753838E-008
  -4.3199999999999996E-010    -3.5898816164514204E-008
  -4.2799999999999997E-010    -3.8079857025080869E-008
  -4.2399999999999998E-010    -4.0381772889591387E-008
  -4.2000000000000000E-010    -4.2809536366168070E-008
  -4.1600000000000001E-010    -4.5368181747705782E-008
  -4.1200000000000002E-010    -4.8062875302203655E-008
  -4.0800000000000004E-010    -5.0898968970788829E-008
  -4.0400000000000005E-010    -5.3882085426960281E-008
  -3.9999999999999996E-010    -5.7018174039678323E-008
  -3.9599999999999998E-010    -6.0313582303042156E-008
  -3.9199999999999999E-010    -6.3775077452460981E-008
  -3.8800000000000000E-010    -6.7409890717090818E-008
  -3.8400000000000002E-010    -7.1225719365510762E-008
  -3.8000000000000003E-010    -7.5230722058754273E-008
  -3.7600000000000005E-010    -7.9433488603196253E-008
  -3.7200000000000006E-010    -8.3842996621876691E-008
  -3.6799999999999997E-010    -8.8468585924457926E-008
  -3.6399999999999998E-010    -9.3319863775128781E-008
  -3.6000000000000000E-010    -9.8406697050183289E-008
  -3.5600000000000001E-010    -1.0373911305196231E-007
  -3.5200000000000003E-010    -1.0932729663997227E-007
  -3.4800000000000004E-010    -1.1518152570591291E-007
  -3.4400000000000005E-010    -1.2131218390833113E-007
  -3.3999999999999996E-010    -1.2772971968390539E-007
  -3.3599999999999998E-010    -1.3444467388490780E-007
  -3.3199999999999999E-010    -1.4146766115673696E-007
  -3.2800000000000000E-010    -1.4880945253996727E-007
  -3.2400000000000002E-010    -1.5648093401842726E-007
  -3.2000000000000003E-010    -1.6449320051377027E-007
  -3.1600000000000005E-010    -1.7285754606426152E-007
  -3.1200000000000006E-010    -1.8158552570389835E-007
  -3.0799999999999997E-010    -1.9068895922348120E-007
  -3.0399999999999998E-010    -2.0018001583573155E-007
  -3.0000000000000000E-010    -2.1007118083974507E-007
  -2.9600000000000001E-010    -2.2037533654686812E-007
  -2.9200000000000003E-010    -2.3110571369370516E-007
  -2.8800000000000004E-010    -2.4227595543224453E-007
  -2.8400000000000005E-010    -2.5390007307894698E-007
  -2.7999999999999996E-010    -2.6599244696993070E-007
  -2.7599999999999998E-010    -2.7856779145044642E-007
  -2.7199999999999999E-010    -2.9164113492760729E-007
  -2.6800000000000011E-010    -3.0522772045565584E-007
  -2.6399999999999992E-010    -3.1934293915195768E-007
  -2.5999999999999993E-010    -3.3400230378824334E-007
  -2.5599999999999994E-010    -3.4922141297352868E-007
  -2.5199999999999996E-010    -3.6501574531922988E-007
  -2.4799999999999997E-010    -3.8140066813203804E-007
  -2.4399999999999998E-010    -3.9839148485237613E-007
  -2.4000000000000000E-010    -4.1600319164141739E-007
  -2.3600000000000001E-010    -4.3425063661853220E-007
  -2.3200000000000003E-010    -4.5314846553585347E-007
  -2.2800000000000004E-010    -4.7271102107838464E-007
  -2.2400000000000005E-010    -4.9295255603572725E-007
  -2.2000000000000007E-010    -5.1388719219542594E-007
  -2.1600000000000008E-010    -5.3552893684423905E-007
  -2.1200000000000010E-010    -5.5789172611172422E-007
  -2.0800000000000011E-010    -5.8098956635994631E-007
  -2.0399999999999992E-010    -6.0483649437485829E-007
  -1.9999999999999993E-010    -6.2944651938136053E-007
  -1.9599999999999994E-010    -6.5483378032530596E-007
  -1.9199999999999996E-010    -6.8101237464797683E-007
  -1.8799999999999997E-010    -7.0799643722781230E-007
  -1.8399999999999998E-010    -7.3580003548474735E-007
  -1.8000000000000000E-010    -7.6443685806387456E-007
  -1.7600000000000001E-010    -7.9392038040048698E-007
  -1.7200000000000003E-010    -8.2426358770549643E-007
  -1.6800000000000004E-010    -8.5547899448045428E-007
  -1.6400000000000005E-010    -8.8757841694285390E-007
  -1.6000000000000007E-010    -9.2057272181011868E-007
  -1.5600000000000008E-010    -9.5447213117974097E-007
  -1.5200000000000010E-010    -9.8928584918985589E-007
  -1.4800000000000011E-010    -1.0250222117578924E-006
  -1.4399999999999992E-010    -1.0616886273476961E-006
  -1.3999999999999993E-010    -1.0992914616697793E-006
  -1.3599999999999994E-010    -1.1378362434894787E-006
  -1.3199999999999996E-010    -1.1773278097611204E-006
  -1.2799999999999997E-010    -1.2177697447728282E-006
  -1.2399999999999999E-010    -1.2591651885039883E-006
  -1.2000000000000000E-010    -1.3015163315665128E-006
  -1.1600000000000001E-010    -1.3448244674548179E-006
  -1.1200000000000003E-010    -1.3890899765222556E-006
  -1.0800000000000004E-010    -1.4343123513759797E-006
  -1.0400000000000005E-010    -1.4804903682257231E-006
  -1.0000000000000007E-010    -1.5276215322824975E-006
  -9.6000000000000082E-011    -1.5757024797760493E-006
  -9.2000000000000096E-011    -1.6247284622905812E-006
  -8.8000000000000110E-011    -1.6746936040762926E-006
  -8.3999999999999917E-011    -1.7255907570674834E-006
  -7.9999999999999931E-011    -1.7774113184530736E-006
  -7.5999999999999944E-011    -1.8301452760921091E-006
  -7.1999999999999958E-011    -1.8837810654081158E-006
  -6.7999999999999972E-011    -1.9383055228363159E-006
  -6.3999999999999986E-011    -1.9937039693110385E-006
  -6.0000000000000000E-011    -2.0499599596603117E-006
  -5.6000000000000013E-011    -2.1070552748316549E-006
  -5.2000000000000027E-011    -2.1649700786683193E-006
  -4.8000000000000041E-011    -2.2236826680296866E-006
  -4.4000000000000055E-011    -2.2831697747793438E-006
  -4.0000000000000069E-011    -2.3434059963544435E-006
  -3.6000000000000082E-011    -2.4043638819159716E-006
  -3.2000000000000096E-011    -2.4660148200017895E-006
  -2.8000000000000110E-011    -2.5283279674121839E-006
  -2.3999999999999917E-011    -2.5912703382107387E-006
  -1.9999999999999931E-011    -2.6548078497907023E-006
  -1.5999999999999945E-011    -2.7189041538520648E-006
  -1.1999999999999959E-011    -2.7835216179198275E-006
  -7.9999999999999724E-012    -2.8486204622454787E-006
  -3.9999999999999862E-012    -2.9141599055981850E-006
   0.0000000000000000         -2.9800966372931315E-006
   3.9999999999999862E-012    -3.0463865430348297E-006
   7.9999999999999724E-012    -3.1129832684056119E-006
   1.1999999999999959E-011    -3.1798392786178864E-006
   1.5999999999999945E-011    -3.2469052324656544E-006
   1.9999999999999931E-011    -3.3141297885914274E-006
   2.3999999999999917E-011    -3.3814601542556780E-006
   2.7999999999999903E-011    -3.4488411802391689E-006
   3.1999999999999889E-011    -3.5162165317328438E-006
   3.6000000000000082E-011    -3.5835268837255137E-006
   4.0000000000000069E-011    -3.6507122182084774E-006
   4.4000000000000055E-011    -3.7177094745277060E-006
   4.8000000000000041E-011    -3.7844542727943243E-006
   5.2000000000000027E-011    -3.8508803735811744E-006
   5.6000000000000013E-011    -3.9169200582659542E-006
   6.0000000000000000E-011    -3.9825033480909335E-006
   6.3999999999999986E-011    -4.0475595452334500E-006
   6.7999999999999972E-011    -4.1120163676939939E-006
   7.1999999999999958E-011    -4.1758001869571527E-006
   7.5999999999999944E-011    -4.2388363959339834E-006
   7.9999999999999931E-011    -4.3010494057109727E-006
   8.3999999999999917E-011    -4.3623626450793279E-006
   8.7999999999999903E-011    -4.4226992520802346E-006
   9.1999999999999889E-011    -4.4819804159253583E-006
   9.6000000000000082E-011    -4.5401276973841912E-006
   1.0000000000000007E-010    -4.5970614320428678E-006
   1.0400000000000005E-010    -4.6527010502928080E-006
   1.0800000000000004E-010    -4.7069652404269937E-006
   1.1200000000000003E-010    -4.7597728243279629E-006
   1.1600000000000001E-010    -4.8110413565159175E-006
   1.2000000000000000E-010    -4.8606884315123151E-006
   1.2399999999999999E-010    -4.9086309264391117E-006
   1.2799999999999997E-010    -4.9547857642358597E-006
   1.3199999999999996E-010    -4.9990692027967073E-006
   1.3599999999999994E-010    -5.0413982016635244E-006
   1.3999999999999993E-010    -5.0816892453149944E-006
   1.4399999999999992E-010    -5.1198596642759016E-006
   1.4799999999999990E-010    -5.1558260089062517E-006
   1.5199999999999989E-010    -5.1895067374681833E-006
   1.5600000000000008E-010    -5.2208200678871629E-006
   1.6000000000000007E-010    -5.2496855354114095E-006
   1.6400000000000005E-010    -5.2760226697621254E-006
   1.6800000000000004E-010    -5.2997530021509506E-006
   1.7200000000000003E-010    -5.3207973736391953E-006
   1.7600000000000001E-010    -5.3390795556174996E-006
   1.8000000000000000E-010    -5.3545234808010270E-006
   1.8399999999999998E-010    -5.3670554216548943E-006
   1.8799999999999997E-010    -5.3766020163429332E-006
   1.9199999999999996E-010    -5.3830930549231776E-006
   1.9599999999999994E-010    -5.3864585916347379E-006
   1.9999999999999993E-010    -5.3866324848421997E-006
   2.0399999999999992E-010    -5.3835490755772966E-006
   2.0799999999999990E-010    -5.3771463249237822E-006
   2.1199999999999989E-010    -5.3673642727804194E-006
   2.1600000000000008E-010    -5.3541460153121442E-006
   2.2000000000000007E-010    -5.3374364578739698E-006
   2.2400000000000005E-010    -5.3171840789081444E-006
   2.2800000000000004E-010    -5.2933387808227073E-006
   2.3200000000000003E-010    -5.2658544586725217E-006
   2.3600000000000001E-010    -5.2346871396868083E-006
   2.4000000000000000E-010    -5.1997953844967001E-006
   2.4399999999999998E-010    -5.1611417539160871E-006
   2.4799999999999997E-010    -5.1186909367962084E-006
   2.5199999999999996E-010    -5.0724098216709923E-006
   2.5599999999999994E-010    -5.0222696311519075E-006
   2.5999999999999993E-010    -4.9682451652931136E-006
   2.6399999999999992E-010    -4.9103140990796395E-006
   2.6799999999999990E-010    -4.8484576508777181E-006
   2.7199999999999989E-010    -4.7826608787700992E-006
   2.7600000000000008E-010    -4.7129136306209648E-006
   2.8000000000000007E-010    -4.6392091937770801E-006
   2.8400000000000005E-010    -4.5615442994937119E-006
   2.8800000000000004E-010    -4.4799210851164139E-006
   2.9200000000000003E-010    -4.3943453620029168E-006
   2.9600000000000001E-010    -4.3048270772183038E-006
   3.0000000000000000E-010    -4.2113799613798397E-006
   3.0399999999999998E-010    -4.1140231411428808E-006
   3.0799999999999997E-010    -4.0127788860606914E-006
   3.1199999999999996E-010    -3.9076742741815856E-006
   3.1599999999999994E-010    -3.7987398212030140E-006
   3.1999999999999993E-010    -3.6860099615296349E-006
   3.2399999999999992E-010    -3.5695239736116072E-006
   3.2799999999999990E-010    -3.4493245880726703E-006
   3.3199999999999989E-010    -3.3254589166990951E-006
   3.3600000000000008E-010    -3.1979784911246211E-006
   3.4000000000000007E-010    -3.0669384217796703E-006
   3.4400000000000005E-010    -2.9323981640960868E-006
   3.4800000000000004E-010    -2.7944216171358838E-006
   3.5200000000000003E-010    -2.6530770825790649E-006
   3.5600000000000001E-010    -2.5084365559385402E-006
   3.6000000000000000E-010    -2.3605761459383237E-006
   3.6399999999999998E-010    -2.2095760961503404E-006
   3.6799999999999997E-010    -2.0555202504154705E-006
   3.7199999999999996E-010    -1.8984968388921380E-006
   3.7599999999999994E-010    -1.7385971119738767E-006
   3.7999999999999993E-010    -1.5759162589772854E-006
   3.8399999999999991E-010    -1.4105530916354457E-006
   3.8799999999999990E-010    -1.2426096973308590E-006
   3.9199999999999989E-010    -1.0721918882402375E-006
   3.9599999999999987E-010    -8.9940876436239589E-007
   4.0000000000000007E-010    -7.2437300349301829E-007
   4.0400000000000005E-010    -5.4720067681272530E-007
   4.0800000000000004E-010    -3.6801108362781201E-007
   4.1200000000000002E-010    -1.8692686911240470E-007
   4.1600000000000001E-010    -4.0736511595355192E-009
   4.2000000000000000E-010     1.8041988126070990E-007
   4.2399999999999998E-010     3.6642225250102728E-007
   4.2799999999999997E-010     5.5379941849821716E-007
   4.3199999999999996E-010     7.4241518212067741E-007
   4.3599999999999994E-010     9.3213114728009214E-007
   4.3999999999999993E-010     1.1228069968509444E-006
   4.4399999999999991E-010     1.3143007018950379E-006
   4.4799999999999990E-010     1.5064688363684991E-006
   4.5199999999999989E-010     1.6991664974860215E-006
   4.5599999999999987E-010     1.8922478066182013E-006
   4.6000000000000007E-010     2.0855655192314581E-006
   4.6400000000000005E-010     2.2789718030953272E-006
   4.6800000000000004E-010     2.4723172678975950E-006
   4.7200000000000002E-010     2.6654518733819237E-006
   4.7600000000000001E-010     2.8582247913119096E-006
   4.8000000000000000E-010     3.0504839934457228E-006
   4.8399999999999998E-010     3.2420774348078407E-006
   4.8799999999999997E-010     3.4328520152847008E-006
   4.9199999999999996E-010     3.6226544780545793E-006
   4.9599999999999994E-010     3.8113311101718670E-006
   4.9999999999999993E-010     3.9987287413854359E-006
   5.0399999999999991E-010     4.1846947432559615E-006
   5.0799999999999990E-010     4.3690768514847241E-006
   5.1199999999999989E-010     4.5517240589617735E-006
   5.1599999999999987E-010     4.7324864392543280E-006
   5.2000000000000007E-010     4.9112150536241218E-006
   5.2400000000000005E-010     5.0877637578932102E-006
   5.2800000000000004E-010     5.2619870435324291E-006
   5.3200000000000002E-010     5.4337420029580356E-006
   5.3600000000000001E-010     5.6028869988289461E-006
   5.4000000000000000E-010     5.7692835983958761E-006
   5.4399999999999998E-010     5.9327941365556317E-006
   5.4799999999999997E-010     6.0932840065518576E-006
   5.5199999999999995E-010     6.2506210819460702E-006
   5.5599999999999994E-010     6.4046756746891904E-006
   5.5999999999999993E-010     6.5553205592032628E-006
   5.6399999999999991E-010     6.7024311179028233E-006
   5.6799999999999990E-010     6.8458863343713788E-006
   5.7199999999999989E-010     6.9855684836293182E-006
   5.7599999999999987E-010     7.1213632815709987E-006
   5.8000000000000007E-010     7.2531596983873528E-006
   5.8400000000000005E-010     7.3808513643024146E-006
   5.8800000000000004E-010     7.5043355411074507E-006
   5.9200000000000002E-010     7.6235139845198960E-006
   5.9600000000000001E-010     7.7382924385322636E-006
   6.0000000000000000E-010     7.8485809522783139E-006
   6.0399999999999998E-010     7.9542939776742813E-006
   6.0799999999999997E-010     8.0553496416232593E-006
   6.1199999999999995E-010     8.1516716944138877E-006
   6.1599999999999994E-010     8.2431868506552847E-006
   6.1999999999999993E-010     8.3298269821530107E-006
   6.2399999999999991E-010     8.4115282994928259E-006
   6.2799999999999990E-010     8.4882317378004365E-006
   6.3199999999999989E-010     8.5598836687020129E-006
   6.3599999999999987E-010     8.6264346497417085E-006
   6.4000000000000006E-010     8.6878403522783155E-006
   6.4400000000000005E-010     8.7440625564575977E-006
   6.4800000000000004E-010     8.7950680367808462E-006
   6.5200000000000002E-010     8.8408289149467361E-006
   6.5600000000000001E-010     8.8813225616642212E-006
   6.6000000000000000E-010     8.9165331033148688E-006
   6.6399999999999978E-010     8.9464484815381044E-006
   6.6800000000000017E-010     8.9710636763338499E-006
   6.7200000000000016E-010     8.9903790895620218E-006
   6.7600000000000015E-010     9.0043989459745838E-006
   6.8000000000000013E-010     9.0131341416625384E-006
   6.8400000000000012E-010     9.0165989171989634E-006
   6.8800000000000011E-010     9.0148142096502738E-006
   6.9200000000000009E-010     9.0078050300308000E-006
   6.9600000000000008E-010     8.9956001578537266E-006
   7.0000000000000006E-010     8.9782349064075559E-006
   7.0400000000000005E-010     8.9557491457185088E-006
   7.0800000000000004E-010     8.9281878672004525E-006
   7.1200000000000002E-010     8.8955990616100940E-006
   7.1600000000000001E-010     8.8580386546282591E-006
   7.2000000000000000E-010     8.8155650604313285E-006
   7.2399999999999998E-010     8.7682438187068537E-006
   7.2799999999999997E-010     8.7161446691508104E-006
   7.3199999999999995E-010     8.6593414784038773E-006
   7.3599999999999994E-010     8.5979121340579265E-006
   7.3999999999999993E-010     8.5319414001968173E-006
   7.4399999999999991E-010     8.4615147895759142E-006
   7.4799999999999990E-010     8.3867233946995658E-006
   7.5199999999999988E-010     8.3076614075947242E-006
   7.5599999999999987E-010     8.2244272882107963E-006
   7.5999999999999986E-010     8.1371222226869089E-006
   7.6399999999999984E-010     8.0458506672090945E-006
   7.6799999999999983E-010     7.9507206610811155E-006
   7.7199999999999982E-010     7.8518436580832385E-006
   7.7599999999999980E-010     7.7493329255412934E-006
   7.7999999999999979E-010     7.6433063229644673E-006
   7.8399999999999977E-010     7.5338838936523449E-006
   7.8800000000000017E-010     7.4211887582260454E-006
   7.9200000000000016E-010     7.3053458985979913E-006
   7.9600000000000015E-010     7.1864838962056517E-006
   8.0000000000000013E-010     7.0647322087377422E-006
   8.0400000000000012E-010     6.9402233216771523E-006
   8.0800000000000010E-010     6.8130907864601730E-006
   8.1200000000000009E-010     6.6834693411082391E-006
   8.1600000000000008E-010     6.5514941262486685E-006
   8.2000000000000006E-010     6.4173014180625807E-006
   8.2400000000000005E-010     6.2810279510219508E-006
   8.2800000000000004E-010     6.1428105242257999E-006
   8.3200000000000002E-010     6.0027865748651698E-006
   8.3600000000000001E-010     5.8610928762488554E-006
   8.3999999999999999E-010     5.7178670419774372E-006
   8.4399999999999998E-010     5.5732468786485107E-006
   8.4799999999999997E-010     5.4273691362574622E-006
   8.5199999999999995E-010     5.2803711384748708E-006
   8.5599999999999994E-010     5.1323909754031040E-006
   8.5999999999999993E-010     4.9835653818260195E-006
   8.6399999999999991E-010     4.8340316424047920E-006
   8.6799999999999990E-010     4.6839251379865632E-006
   8.7199999999999988E-010     4.5333811166040702E-006
   8.7599999999999987E-010     4.3825337515615364E-006
   8.7999999999999986E-010     4.2315148792402790E-006
   8.8399999999999984E-010     4.0804550751066481E-006
   8.8799999999999983E-010     3.9294816465859985E-006
   8.9199999999999981E-010     3.7787208199898691E-006
   8.9599999999999980E-010     3.6282953608323062E-006
   8.9999999999999979E-010     3.4783250606490391E-006
   9.0399999999999977E-010     3.3289274680439649E-006
   9.0799999999999976E-010     3.1802181485392138E-006
   9.1200000000000016E-010     3.0323084481181186E-006
   9.1600000000000015E-010     2.8853079920374134E-006
   9.2000000000000013E-010     2.7393236032225134E-006
   9.2400000000000012E-010     2.5944598639479223E-006
   9.2800000000000010E-010     2.4508178467252085E-006
   9.3200000000000009E-010     2.3084964620930831E-006
   9.3600000000000008E-010     2.1675914226954024E-006
   9.4000000000000006E-010     2.0281956116111218E-006
   9.4400000000000005E-010     1.8903981643596617E-006
   9.4800000000000004E-010     1.7542851154464706E-006
   9.5200000000000002E-010     1.6199390188430729E-006
   9.5600000000000001E-010     1.4874383366274586E-006
   9.5999999999999999E-010     1.3568576770938800E-006
   9.6399999999999998E-010     1.2282684316209570E-006
   9.6799999999999997E-010     1.1017377068233446E-006
   9.7199999999999995E-010     9.7732903025898139E-007
   9.7599999999999994E-010     8.5510211211378904E-007