  -1.2000000000000000E-009     0.0000000000000000     
  -1.1960000000000000E-009     0.0000000000000000     
  -1.1920000000000000E-009     0.0000000000000000     
  -1.1880000000000000E-009     0.0000000000000000     
  -1.1840000000000000E-009     0.0000000000000000     
  -1.1800000000000001E-009     0.0000000000000000     
  -1.1760000000000001E-009     0.0000000000000000     
  -1.1720000000000001E-009     0.0000000000000000     
  -1.1679999999999999E-009     0.0000000000000000     
  -1.1639999999999999E-009     0.0000000000000000     
  -1.1599999999999999E-009    -2.4268014923378241E-041
  -1.1559999999999999E-009    -4.5462406603004279E-040
  -1.1520000000000000E-009    -4.4683621341504191E-039
  -1.1480000000000000E-009    -3.0616246796531820E-038
  -1.1440000000000000E-009    -1.6367855697989326E-037
  -1.1400000000000000E-009    -7.2355088658339737E-037
  -1.1360000000000000E-009    -2.7343031441825027E-036
  -1.1320000000000000E-009    -9.0112121897707088E-036
  -1.1280000000000000E-009    -2.6203814730257826E-035
  -1.1240000000000000E-009    -6.7625077388131700E-035
  -1.1200000000000001E-009    -1.5495500325533691E-034
  -1.1160000000000001E-009    -3.1333496232506772E-034
  -1.1120000000000001E-009    -5.4971402226367693E-034
  -1.1079999999999999E-009    -8.0271180695205668E-034
  -1.1039999999999999E-009    -8.6294419809526152E-034
  -1.0999999999999999E-009    -2.9817951344644822E-034
  -1.0959999999999999E-009     1.5160991692818414E-033
  -1.0920000000000000E-009     5.0834274543908807E-033
  -1.0880000000000000E-009     9.9970397412550503E-033
  -1.0840000000000000E-009     1.3656834396012401E-032
  -1.0800000000000000E-009     9.9919160276857917E-033
  -1.0760000000000000E-009    -1.0413195149782483E-032
  -1.0720000000000000E-009    -5.6393105191528757E-032
  -1.0680000000000000E-009    -1.2581243926000633E-031
  -1.0640000000000000E-009    -1.8790952075573976E-031
  -1.0600000000000001E-009    -1.6308650705213619E-031
  -1.0560000000000001E-009     8.5481280462240355E-032
  -1.0520000000000001E-009     7.2261655762485940E-031
  -1.0480000000000001E-009     1.8423223922944184E-030
  -1.0439999999999999E-009     3.2785215418911424E-030
  -1.0399999999999999E-009     4.3467997684454415E-030
  -1.0359999999999999E-009     3.6197347800439452E-030
  -1.0320000000000000E-009    -1.0531268904819812E-030
  -1.0280000000000000E-009    -1.1978094958646237E-029
  -1.0240000000000000E-009    -3.0208958696145885E-029
  -1.0200000000000000E-009    -5.3219869517596268E-029
  -1.0160000000000000E-009    -7.2094937480567785E-029
  -1.0120000000000000E-009    -6.9471902070894459E-029
  -1.0080000000000000E-009    -2.0372665470926917E-029
  -1.0040000000000000E-009     1.0140624233015805E-028
  -1.0000000000000001E-009     3.0916474380735611E-028
  -9.9600000000000008E-010     5.8151056527708384E-028
  -9.9199999999999988E-010     8.3742006213771267E-028
  -9.8799999999999990E-010     9.1883199007244253E-028
  -9.8399999999999991E-010     5.9760746891856397E-028
  -9.7999999999999992E-010    -3.7350635549641747E-028
  -9.7599999999999994E-010    -2.1512414454974360E-027
  -9.7199999999999995E-010    -4.6357518464580853E-027
  -9.6799999999999997E-010    -7.2808229881097649E-027
  -9.6399999999999998E-010    -8.9530960387635541E-027
  -9.5999999999999999E-010    -7.9510170623624470E-027
  -9.5600000000000001E-010    -2.3101089913644563E-027
  -9.5200000000000002E-010     9.5099223694968010E-027
  -9.4800000000000004E-010     2.7560687790624041E-026
  -9.4400000000000005E-010     4.9143027133900568E-026
  -9.4000000000000006E-010     6.7755171952338046E-026
  -9.3600000000000008E-010     7.2876827105063879E-026
  -9.3200000000000009E-010     5.1320072946023442E-026
  -9.2800000000000000E-010    -9.2553248193864621E-027
  -9.2400000000000001E-010    -1.1454572972147674E-025
  -9.1999999999999992E-010    -2.5627674921937168E-025
  -9.1599999999999994E-010    -4.0524962583649933E-025
  -9.1199999999999995E-010    -5.0782620829292088E-025
  -9.0799999999999997E-010    -4.8962382045584763E-025
  -9.0399999999999998E-010    -2.6986878779103544E-025
  -8.9999999999999999E-010     2.1202216731766369E-025
  -8.9600000000000001E-010     9.5973958277150271E-025
  -8.9200000000000002E-010     1.8805431139039398E-024
  -8.8800000000000004E-010     2.7557997030944238E-024
  -8.8400000000000005E-010     3.2387650552849870E-024
  -8.8000000000000006E-010     2.8972662616104387E-024
  -8.7599999999999997E-010     1.3133432310537075E-024
  -8.7199999999999999E-010    -1.7612733324490458E-024
  -8.6800000000000000E-010    -6.2152663102835285E-024
  -8.6400000000000001E-010    -1.1399057803335483E-023
  -8.5999999999999993E-010    -1.6024864287914597E-023
  -8.5599999999999994E-010    -1.8223721182572224E-023
  -8.5199999999999995E-010    -1.5827782253097719E-023
  -8.4799999999999997E-010    -6.9081738736910980E-024
  -8.4399999999999998E-010     9.4691077440002209E-024
  -8.3999999999999999E-010     3.2397233292310292E-023
  -8.3600000000000001E-010     5.8415212370321476E-023
  -8.3200000000000002E-010     8.1220671218178434E-023
  -8.2800000000000004E-010     9.2114837640807796E-023
  -8.2400000000000005E-010     8.1408805920012897E-023
  -8.2000000000000006E-010     4.0835281854841747E-023
  -8.1599999999999997E-010    -3.3274557557960074E-023
  -8.1199999999999999E-010    -1.3663281594818654E-022
  -8.0800000000000000E-010    -2.5436240244088349E-022
  -8.0400000000000002E-010    -3.6019597647803140E-022
  -7.9999999999999993E-010    -4.1857214941252447E-022
  -7.9599999999999994E-010    -3.9032721680473426E-022
  -7.9199999999999995E-010    -2.4195520976113010E-022
  -7.8799999999999997E-010     4.2613096611382185E-023
  -7.8399999999999998E-010     4.4990582847037447E-022
  -7.7999999999999999E-010     9.2766886494284281E-022
  -7.7600000000000001E-010     1.3821804692753937E-021
  -7.7200000000000002E-010     1.6854998598788150E-021
  -7.6800000000000004E-010     1.6946731298452807E-021
  -7.6400000000000005E-010     1.2825056706459353E-021
  -7.6000000000000006E-010     3.7630829356145982E-022
  -7.5600000000000008E-010    -1.0023967010377514E-021
  -7.5199999999999999E-010    -2.7070127399359248E-021
  -7.4800000000000000E-010    -4.4548787756881294E-021
  -7.4400000000000002E-010    -5.8459654311897711E-021
  -7.3999999999999993E-010    -6.4169462406421895E-021
  -7.3599999999999994E-010    -5.7293876885384465E-021
  -7.3199999999999995E-010    -3.4819397760114751E-021
  -7.2799999999999997E-010     3.7274031483889994E-022
  -7.2399999999999998E-010     5.5327954492966288E-021
  -7.2000000000000000E-010     1.1303031540922441E-020
  -7.1600000000000001E-010     1.6627697852335149E-020
  -7.1200000000000002E-010     2.0215319771679081E-020
  -7.0800000000000004E-010     2.0753257611224704E-020
  -7.0400000000000005E-010     1.7188034791207601E-020
  -6.9999999999999996E-010     9.0256492190740812E-021
  -6.9599999999999997E-010    -3.4105117670162591E-021
  -6.9199999999999999E-010    -1.8832694084614292E-020
  -6.8800000000000000E-010    -3.5012791425116640E-020
  -6.8400000000000002E-010    -4.9012841079884306E-020
  -6.8000000000000003E-010    -5.7618707829835535E-020
  -6.7600000000000004E-010    -5.7926952416925302E-020
  -6.7199999999999995E-010    -4.7989249806353912E-020
  -6.6799999999999997E-010    -2.7385691995663471E-020
  -6.6399999999999998E-010     2.4115813444744575E-021
  -6.6000000000000000E-010     3.8002332416948024E-020
  -6.5600000000000001E-010     7.4414845947408478E-020
  -6.5200000000000002E-010     1.0584141002155815E-019
  -6.4800000000000004E-010     1.2664797308147542E-019
  -6.4400000000000005E-010     1.3246962944900840E-019
  -6.3999999999999996E-010     1.2115013547566540E-019
  -6.3599999999999998E-010     9.3279773683357363E-020
  -6.3199999999999999E-010     5.2142931106644465E-020
  -6.2800000000000000E-010     3.0040392859304941E-021
  -6.2400000000000002E-010    -4.8178937064582974E-020
  -6.2000000000000003E-010    -9.6351222060446005E-020
  -6.1600000000000004E-010    -1.3886230928535796E-019
  -6.1199999999999995E-010    -1.7639439200466654E-019
  -6.0799999999999997E-010    -2.1287962556785656E-019
  -6.0399999999999998E-010    -2.5413162722149575E-019
  -6.0000000000000000E-010    -3.0520002844129162E-019
  -5.9600000000000001E-010    -3.6681552336634277E-019
  -5.9200000000000002E-010    -4.3166400909714640E-019
  -5.8800000000000004E-010    -4.8152035070437398E-019
  -5.8400000000000005E-010    -4.8639763293103062E-019
  -5.7999999999999996E-010    -4.0675205019557152E-019
  -5.7599999999999998E-010    -1.9938650466184340E-019
  -5.7199999999999999E-010     1.7296283325984822E-019
  -5.6800000000000000E-010     7.2922527478149886E-019
  -5.6400000000000002E-010     1.4565574484167413E-018
  -5.6000000000000003E-010     2.2984410711726572E-018
  -5.5600000000000004E-010     3.1473788116502030E-018
  -5.5199999999999995E-010     3.8452715428395983E-018
  -5.4799999999999997E-010     4.1939831220257041E-018
  -5.4399999999999998E-010     3.9774016189033103E-018
  -5.4000000000000000E-010     2.9945731358543494E-018
  -5.3600000000000001E-010     1.1013719715083678E-018
  -5.3200000000000002E-010    -1.7440027326539135E-018
  -5.2800000000000004E-010    -5.4383315536507820E-018
  -5.2400000000000005E-010    -9.7013856664124143E-018
  -5.1999999999999996E-010    -1.4062884616532537E-017
  -5.1599999999999998E-010    -1.7875734378425183E-017
  -5.1199999999999999E-010    -2.0360720780245699E-017
  -5.0800000000000000E-010    -2.0684372796412093E-017
  -5.0400000000000002E-010    -1.8067306514888286E-017
  -5.0000000000000003E-010    -1.1915300874241292E-017
  -4.9600000000000004E-010    -1.9603312137568901E-018
  -4.9199999999999996E-010     1.1605644222724109E-017
  -4.8799999999999997E-010     2.8024451758800083E-017
  -4.8399999999999998E-010     4.5914480442162747E-017
  -4.8000000000000000E-010     6.3282517330651956E-017
  -4.7600000000000001E-010     7.7620431198037191E-017
  -4.7200000000000002E-010     8.6095340057170842E-017
  -4.6800000000000004E-010     8.5831920155259455E-017
  -4.6400000000000005E-010     7.4273649539168936E-017
  -4.5999999999999996E-010     4.9596559905797772E-017
  -4.5599999999999998E-010     1.1136530503221863E-017
  -4.5199999999999999E-010    -4.0219949929079432E-017
  -4.4800000000000000E-010    -1.0173848781808417E-016
  -4.4400000000000002E-010    -1.6869197922749225E-016
  -4.4000000000000003E-010    -2.3442184394019050E-016
  -4.3600000000000005E-010    -2.9064672529572423E-016
  -4.3199999999999996E-010    -3.2803883430476457E-016
  -4.2799999999999997E-010    -3.3706162590553373E-016
  -4.2399999999999998E-010    -3.0902925379434133E-016
  -4.2000000000000000E-010    -2.3731503953575692E-016
  -4.1600000000000001E-010    -1.1860265422737618E-016
  -4.1200000000000002E-010     4.5952058424002576E-017
  -4.0800000000000004E-010     2.4979763002792821E-016
  -4.0400000000000005E-010     4.8045314320153260E-016
  -3.9999999999999996E-010     7.1950141238044142E-016
  -3.9599999999999998E-010     9.4321495036924360E-016
  -3.9199999999999999E-010     1.1238734555084343E-015
  -3.8800000000000000E-010     1.2317679253083506E-015
  -3.8400000000000002E-010     1.2378170773023097E-015
  -3.8000000000000003E-010     1.1166461783010543E-015
  -3.7600000000000005E-010     8.4991046513360558E-016
  -3.7200000000000006E-010     4.2958426300093234E-016
  -3.6799999999999997E-010    -1.3910185538865293E-016
  -3.6399999999999998E-010    -8.3540873321078915E-016
  -3.6000000000000000E-010    -1.6218445426500280E-015
  -3.5600000000000001E-010    -2.4442093838449231E-015
  -3.5200000000000003E-010    -3.2331390431809645E-015
  -3.4800000000000004E-010    -3.9072632761308089E-015
  -3.4400000000000005E-010    -4.3779765192551970E-015
  -3.3999999999999996E-010    -4.5556921920966243E-015
  -3.3599999999999998E-010    -4.3573123143736967E-015
  -3.3199999999999999E-010    -3.7145154031940168E-015
  -3.2800000000000000E-010    -2.5823521130382235E-015
  -3.2400000000000002E-010    -9.4753022415137085E-016
  -3.2000000000000003E-010     1.1642817138620991E-015
  -3.1600000000000005E-010     3.6828422041704955E-015
  -3.1200000000000006E-010     6.4901068574945058E-015
  -3.0799999999999997E-010     9.4200200504126440E-015
  -3.0399999999999998E-010     1.2261850345823101E-014
  -3.0000000000000000E-010     1.4767452938648884E-014
  -2.9600000000000001E-010     1.6662633840193578E-014
  -2.9200000000000003E-010     1.7662554073534324E-014
  -2.8800000000000004E-010     1.7490860408279249E-014
  -2.8400000000000005E-010     1.5901901533915830E-014
  -2.7999999999999996E-010     1.2705110076595411E-014
  -2.7599999999999998E-010     7.7903158343889766E-015
  -2.7199999999999999E-010     1.1524529863652724E-015
  -2.6800000000000011E-010    -7.0861246264395142E-015
  -2.6399999999999992E-010    -1.6657705731506582E-014
  -2.5999999999999993E-010    -2.7137765718995310E-014
  -2.5599999999999994E-010    -3.7942133346022875E-014
  -2.5199999999999996E-010    -4.8334740743030711E-014
  -2.4799999999999997E-010    -5.7447681014457074E-014
  -2.4399999999999998E-010    -6.4314871984519141E-014
  -2.4000000000000000E-010    -6.7919813857824455E-014
  -2.3600000000000001E-010    -6.7257253495755424E-014
  -2.3200000000000003E-010    -6.1407495026536161E-014
  -2.2800000000000004E-010    -4.9620896729540405E-014
  -2.2400000000000005E-010    -3.1409009936541912E-014
  -2.2000000000000007E-010    -6.6375516789680749E-015
  -2.1600000000000008E-010     2.4384531071572515E-014
  -2.1200000000000010E-010     6.0826523214523648E-014
  -2.0800000000000011E-010     1.0127484165593923E-013
  -2.0399999999999992E-010     1.4369626674017724E-013
  -1.9999999999999993E-010     1.8543177860705214E-013
  -1.9599999999999994E-010     2.2322575725348885E-013
  -1.9199999999999996E-010     2.5329383508590526E-013
  -1.8799999999999997E-010     2.7142973286177019E-013
  -1.8399999999999998E-010     2.7314880674200058E-013
  -1.8000000000000000E-010     2.5386288804460104E-013
  -1.7600000000000001E-010     2.0907756379653880E-013
  -1.7200000000000003E-010     1.3460031034938075E-013
  -1.6800000000000004E-010     2.6745254882531356E-014
  -1.6400000000000005E-010    -1.1748089866716592E-013
  -1.6000000000000007E-010    -3.0022830774835378E-013
  -1.5600000000000008E-010    -5.2270408543120435E-013
  -1.5200000000000010E-010    -7.8513682830192609E-013
  -1.4800000000000011E-010    -1.0868149572896313E-012
  -1.4399999999999992E-010    -1.4262047916642567E-012
  -1.3999999999999993E-010    -1.8011488713802064E-012
  -1.3599999999999994E-010    -2.2091360102143131E-012
  -1.3199999999999996E-010    -2.6476335278765603E-012
  -1.2799999999999997E-010    -3.1144602146887160E-012
  -1.2399999999999999E-010    -3.6081799909781063E-012
  -1.2000000000000000E-010    -4.1284853173582309E-012
  -1.1600000000000001E-010    -4.6765482566170997E-012
  -1.1200000000000003E-010    -5.2553069309152873E-012
  -1.0800000000000004E-010    -5.8696662428565492E-012
  -1.0400000000000005E-010    -6.5265943657366798E-012
  -1.0000000000000007E-010    -7.2351010123953652E-012
  -9.6000000000000082E-011    -8.0061029127842307E-012
  -9.2000000000000096E-011    -8.8521792656537048E-012
  -8.8000000000000110E-011    -9.7872275775574008E-012
  -8.3999999999999917E-011    -1.0826065710276895E-011
  -7.9999999999999931E-011    -1.1983991345665204E-011
  -7.5999999999999944E-011    -1.3276349971627270E-011
  -7.1999999999999958E-011    -1.4718142341585328E-011
  -6.7999999999999972E-011    -1.6323715325627782E-011
  -6.3999999999999986E-011    -1.8106547734477848E-011
  -6.0000000000000000E-011    -2.0079180579780448E-011
  -5.6000000000000013E-011    -2.2253272270055706E-011
  -5.2000000000000027E-011    -2.4639798641236855E-011
  -4.8000000000000041E-011    -2.7249374830033374E-011
  -4.4000000000000055E-011    -3.0092669810439594E-011
  -4.0000000000000069E-011    -3.3180882471334299E-011
  -3.6000000000000082E-011    -3.6526233171551797E-011
  -3.2000000000000096E-011    -4.0142455802211647E-011
  -2.8000000000000110E-011    -4.4045192400716496E-011
  -2.3999999999999917E-011    -4.8252325011295260E-011
  -1.9999999999999931E-011    -5.2784179714747671E-011
  -1.5999999999999945E-011    -5.7663605081626963E-011
  -1.1999999999999959E-011    -6.2915925730397554E-011
  -7.9999999999999724E-012    -6.8568845872594509E-011
  -3.9999999999999862E-012    -7.4652253947090004E-011
   0.0000000000000000         -8.1198004287385977E-011
   3.9999999999999862E-012    -8.8239820300116400E-011
   7.9999999999999724E-012    -9.5813182683642615E-011
   1.1999999999999959E-011    -1.0395543052468168E-010
   1.5999999999999945E-011    -1.1270598938403324E-010
   1.9999999999999931E-011    -1.2210677055357107E-010
   2.3999999999999917E-011    -1.3220274352451528E-010
   2.7999999999999903E-011    -1.4304267533859664E-010
   3.1999999999999889E-011    -1.5467991704398414E-010
   3.6000000000000082E-011    -1.6717315815231745E-010
   4.0000000000000069E-011    -1.8058727404992705E-010
   4.4000000000000055E-011    -1.9499385303380986E-010
   4.8000000000000041E-011    -2.1047163283660505E-010
   5.2000000000000027E-011    -2.2710665077109368E-010
   5.6000000000000013E-011    -2.4499188936353388E-010
   6.0000000000000000E-011    -2.6422699673441631E-010
   6.3999999999999986E-011    -2.8491731167413694E-010
   6.7999999999999972E-011    -3.0717293294715292E-010
   7.1999999999999958E-011    -3.3110763707368748E-010
   7.5999999999999944E-011    -3.5683762818789607E-010
   7.9999999999999931E-011    -3.8448073246149103E-010
   8.3999999999999917E-011    -4.1415562729035801E-010
   8.7999999999999903E-011    -4.4598158935040131E-010
   9.1999999999999889E-011    -4.8007882380976433E-010
   9.6000000000000082E-011    -5.1656917432456727E-010
   1.0000000000000007E-010    -5.5557772305896140E-010
   1.0400000000000005E-010    -5.9723487430980910E-010
   1.0800000000000004E-010    -6.4167856108126754E-010
   1.1200000000000003E-010    -6.8905725226023458E-010
   1.1600000000000001E-010    -7.3953283973328726E-010
   1.2000000000000000E-010    -7.9328351770925817E-010
   1.2399999999999999E-010    -8.5050617783471902E-010
   1.2799999999999997E-010    -9.1141852823548500E-010
   1.3199999999999996E-010    -9.7626004902755335E-010
   1.3599999999999994E-010    -1.0452928220462198E-009
   1.3999999999999993E-010    -1.1188008089490879E-009
   1.4399999999999992E-010    -1.1970889797610439E-009
   1.4799999999999990E-010    -1.2804806562021491E-009
   1.5199999999999989E-010    -1.3693154350182149E-009
   1.5600000000000008E-010    -1.4639461131473976E-009
   1.6000000000000007E-010    -1.5647361867628501E-009
   1.6400000000000005E-010    -1.6720570283276099E-009
   1.6800000000000004E-010    -1.7862865056773361E-009
   1.7200000000000003E-010    -1.9078072706762072E-009
   1.7600000000000001E-010    -2.0370080396201253E-009
   1.8000000000000000E-010    -2.1742845425475757E-009
   1.8399999999999998E-010    -2.3200417974172244E-009
   1.8799999999999997E-010    -2.4746989771709035E-009
   1.9199999999999996E-010    -2.6386927688234549E-009
   1.9599999999999994E-010    -2.8124834795974137E-009
   1.9999999999999993E-010    -2.9965599526564709E-009
   2.0399999999999992E-010    -3.1914447443124126E-009
   2.0799999999999990E-010    -3.3976983518822613E-009
   2.1199999999999989E-010    -3.6159219870276663E-009
   2.1600000000000008E-010    -3.8467606362509433E-009
   2.2000000000000007E-010    -4.0909015824824199E-009
   2.2400000000000005E-010    -4.3490752000876329E-009
   2.2800000000000004E-010    -4.6220502339391530E-009
   2.3200000000000003E-010    -4.9106308588903369E-009
   2.3600000000000001E-010    -5.2156524178586799E-009
   2.4000000000000000E-010    -5.5379757941311083E-009
   2.4399999999999998E-010    -5.8784821059387891E-009
   2.4799999999999997E-010    -6.2380704560244030E-009
   2.5199999999999996E-010    -6.6176539261311027E-009
   2.5599999999999994E-010    -7.0181580608943668E-009
   2.5999999999999993E-010    -7.4405236744080094E-009
   2.6399999999999992E-010    -7.8857080357757069E-009
   2.6799999999999990E-010    -8.3546903959150082E-009
   2.7199999999999989E-010    -8.8484797434293991E-009
   2.7600000000000008E-010    -9.3681214957339688E-009
   2.8000000000000007E-010    -9.9147057760859474E-009
   2.8400000000000005E-010    -1.0489375961659411E-008
   2.8800000000000004E-010    -1.1093334019147277E-008
   2.9200000000000003E-010    -1.1727852000861464E-008
   2.9600000000000001E-010    -1.2394270374577759E-008
   3.0000000000000000E-010    -1.3094002045485544E-008
   3.0399999999999998E-010    -1.3828531211363515E-008
   3.0799999999999997E-010    -1.4599414106047069E-008
   3.1199999999999996E-010    -1.5408267158938447E-008
   3.1599999999999994E-010    -1.6256760263256656E-008
   3.1999999999999993E-010    -1.7146615515030371E-008
   3.2399999999999992E-010    -1.8079588500862908E-008
   3.2799999999999990E-010    -1.9057465526664886E-008
   3.3199999999999989E-010    -2.0082057851474618E-008
   3.3600000000000008E-010    -2.1155190863824599E-008
   3.4000000000000007E-010    -2.2278704968152907E-008
   3.4400000000000005E-010    -2.3454459415868312E-008
   3.4800000000000004E-010    -2.4684322477327217E-008
   3.5200000000000003E-010    -2.5970188277871141E-008
   3.5600000000000001E-010    -2.7313975576381328E-008
   3.6000000000000000E-010    -2.8717640759059633E-008
   3.6399999999999998E-010    -3.0183181552980478E-008
   3.6799999999999997E-010    -3.1712656965713689E-008
   3.7199999999999996E-010    -3.3308175200153193E-008
   3.7599999999999994E-010    -3.4971922898320381E-008
   3.7999999999999993E-010    -3.6706145626610160E-008
   3.8399999999999991E-010    -3.8513159985834559E-008
   3.8799999999999990E-010    -4.0395350568506026E-008
   3.9199999999999989E-010    -4.2355166878792445E-008
   3.9599999999999987E-010    -4.4395114979314696E-008
   4.0000000000000007E-010    -4.6517749029916545E-008
   4.0400000000000005E-010    -4.8725653037241843E-008
   4.0800000000000004E-010    -5.1021446143420056E-008
   4.1200000000000002E-010    -5.3407767353552902E-008
   4.1600000000000001E-010    -5.5887260777864633E-008
   4.2000000000000000E-010    -5.8462589116173841E-008
   4.2399999999999998E-010    -6.1136410296116118E-008
   4.2799999999999997E-010    -6.3911379857748927E-008
   4.3199999999999996E-010    -6.6790176715656517E-008
   4.3599999999999994E-010    -6.9775456780838832E-008
   4.3999999999999993E-010    -7.2869907667350058E-008
   4.4399999999999991E-010    -7.6076219082254442E-008
   4.4799999999999990E-010    -7.9397084176871510E-008
   4.5199999999999989E-010    -8.2835222671796466E-008
   4.5599999999999987E-010    -8.6393360679924974E-008
   4.6000000000000007E-010    -9.0074239452747551E-008
   4.6400000000000005E-010    -9.3880571030130508E-008
   4.6800000000000004E-010    -9.7815098501124125E-008
   4.7200000000000002E-010    -1.0188051194662632E-007
   4.7600000000000001E-010    -1.0607947709275625E-007
   4.8000000000000000E-010    -1.1041460996090273E-007
   4.8399999999999998E-010    -1.1488846621940052E-007
   4.8799999999999997E-010    -1.1950353774799772E-007
   4.9199999999999996E-010    -1.2426223921305115E-007
   4.9599999999999994E-010    -1.2916688055820982E-007
   4.9999999999999993E-010    -1.3421971803162750E-007
   5.0399999999999991E-010    -1.3942287258246941E-007
   5.0799999999999990E-010    -1.4477844065212305E-007
   5.1199999999999989E-010    -1.5028839305349876E-007
   5.1599999999999987E-010    -1.5595466919841298E-007
   5.2000000000000007E-010    -1.6177911290689075E-007
   5.2400000000000005E-010    -1.6776353398854149E-007
   5.2800000000000004E-010    -1.7390966324963490E-007
   5.3200000000000002E-010    -1.8021920577587764E-007
   5.3600000000000001E-010    -1.8669379406082002E-007
   5.4000000000000000E-010    -1.9333498346313919E-007
   5.4399999999999998E-010    -2.0014421783877463E-007
   5.4799999999999997E-010    -2.0712287159081006E-007
   5.5199999999999995E-010    -2.1427217110413258E-007
   5.5599999999999994E-010    -2.2159318812523958E-007
   5.5999999999999993E-010    -2.2908681232329032E-007
   5.6399999999999991E-010    -2.3675371212181564E-007
   5.6799999999999990E-010    -2.4459433397579857E-007
   5.7199999999999989E-010    -2.5260893396803984E-007
   5.7599999999999987E-010    -2.6079743352855461E-007
   5.8000000000000007E-010    -2.6915956023698685E-007
   5.8400000000000005E-010    -2.7769469615349553E-007
   5.8800000000000004E-010    -2.8640206322936370E-007
   5.9200000000000002E-010    -2.9528053695252954E-007
   5.9600000000000001E-010    -3.0432882033222631E-007
   6.0000000000000000E-010    -3.1354542326643725E-007
   6.0399999999999998E-010    -3.2292863317891772E-007
   6.0799999999999997E-010    -3.3247645472529867E-007
   6.1199999999999995E-010    -3.4218686354448726E-007
   6.1599999999999994E-010    -3.5205760578186153E-007
   6.1999999999999993E-010    -3.6208622909630713E-007
   6.2399999999999991E-010    -3.7227014189244992E-007
   6.2799999999999990E-010    -3.8260653219095927E-007
   6.3199999999999989E-010    -3.9309239546526036E-007
   6.3599999999999987E-010    -4.0372452409479571E-007
   6.4000000000000006E-010    -4.1449935996136177E-007
   6.4400000000000005E-010    -4.2541315545031454E-007
   6.4800000000000004E-010    -4.3646172530341598E-007
   6.5200000000000002E-010    -4.4764071443901411E-007
   6.5600000000000001E-010    -4.5894531660296116E-007
   6.6000000000000000E-010    -4.7037041568851615E-007
   6.6399999999999978E-010    -4.8191042288441061E-007
   6.6800000000000017E-010    -4.9355951499910090E-007
   6.7200000000000016E-010    -5.0531143059663266E-007
   6.7600000000000015E-010    -5.1715958926591345E-007
   6.8000000000000013E-010    -5.2909706968705691E-007
   6.8400000000000012E-010    -5.4111676299637356E-007
   6.8800000000000011E-010    -5.5321121297325151E-007
   6.9200000000000009E-010    -5.6537268302607647E-007
   6.9600000000000008E-010    -5.7759328595656381E-007
   7.0000000000000006E-010    -5.8986498236104280E-007
   7.0400000000000005E-010    -6.0217939876302046E-007
   7.0800000000000004E-010    -6.1452811652856500E-007
   7.1200000000000002E-010    -6.2690248587812488E-007
   7.1600000000000001E-010    -6.3929367491124608E-007
   7.2000000000000000E-010    -6.5169260535427027E-007
   7.2399999999999998E-010    -6.6409012011793396E-007
   7.2799999999999997E-010    -6.7647679667129246E-007
   7.3199999999999995E-010    -6.8884293075507392E-007
   7.3599999999999994E-010    -7.0117862201143115E-007
   7.3999999999999993E-010    -7.1347377031367553E-007
   7.4399999999999991E-010    -7.2571796363156040E-007
   7.4799999999999990E-010    -7.3790053534935047E-007
   7.5199999999999988E-010    -7.5001053422789263E-007
   7.5599999999999987E-010    -7.6203695697717340E-007
   7.5999999999999986E-010    -7.7396837923575901E-007
   7.6399999999999984E-010    -7.8579330628312121E-007
   7.6799999999999983E-010    -7.9750007153525286E-007
   7.7199999999999982E-010    -8.0907687501493688E-007
   7.7599999999999980E-010    -8.2051178836841349E-007
   7.7999999999999979E-010    -8.3179291795396615E-007
   7.8399999999999977E-010    -8.4290820405596084E-007
   7.8800000000000017E-010    -8.5384575679077476E-007
   7.9200000000000016E-010    -8.6459364322000259E-007
   7.9600000000000015E-010    -8.7513989238771024E-007
   8.0000000000000013E-010    -8.8547270710865995E-007
   8.0400000000000012E-010    -8.9558035923727051E-007
   8.0800000000000010E-010    -9.0545118100828959E-007
   8.1200000000000009E-010    -9.1507375075267453E-007
   8.1600000000000008E-010    -9.2443658571469912E-007
   8.2000000000000006E-010    -9.3352844869527969E-007
   8.2400000000000005E-010    -9.4233806308259076E-007
   8.2800000000000004E-010    -9.5085440617963310E-007
   8.3200000000000002E-010    -9.5906666635290934E-007
   8.3600000000000001E-010    -9.6696385944856228E-007
   8.3999999999999999E-010    -9.7453547535560072E-007
   8.4399999999999998E-010    -9.8177075158981081E-007
   8.4799999999999997E-010    -9.8865937188433253E-007
   8.5199999999999995E-010    -9.9519117282347714E-007
   8.5599999999999994E-010    -1.0013562391812270E-006
   8.5999999999999993E-010    -1.0071445881369545E-006
   8.6399999999999991E-010    -1.0125466767225652E-006
   8.6799999999999990E-010    -1.0175533169586832E-006
   8.7199999999999988E-010    -1.0221556654949975E-006
   8.7599999999999987E-010    -1.0263451338285964E-006
   8.7999999999999986E-010    -1.0301134712013846E-006
   8.8399999999999984E-010    -1.0334529136758136E-006
   8.8799999999999983E-010    -1.0363560535788429E-006
   8.9199999999999981E-010    -1.0388160677846410E-006
   8.9599999999999980E-010    -1.0408265842806495E-006
   8.9999999999999979E-010    -1.0423816859763032E-006
   9.0399999999999977E-010    -1.0434759380653918E-006
   9.0799999999999976E-010    -1.0441045463515048E-006
   9.1200000000000016E-010    -1.0442631446288017E-006
   9.1600000000000015E-010    -1.0439477116653019E-006
   9.2000000000000013E-010    -1.0431550024058570E-006
   9.2400000000000012E-010    -1.0418819889873522E-006
   9.2800000000000010E-010    -1.0401263798177462E-006
   9.3200000000000009E-010    -1.0378861910613379E-006
   9.3600000000000008E-010    -1.0351599450938855E-006
   9.4000000000000006E-010    -1.0319465652308701E-006
   9.4400000000000005E-010    -1.0282454173549571E-006
   9.4800000000000004E-010    -1.0240564034326943E-006
   9.5200000000000002E-010    -1.0193798545038771E-006
   9.5600000000000001E-010    -1.0142165773417226E-006
   9.5999999999999999E-010    -1.0085680015921966E-006
   9.6399999999999998E-010    -1.0024358205269505E-006
   9.6799999999999997E-010    -9.9582259802377312E-007
   9.7199999999999995E-010    -9.8873115675690705E-007
   9.7599999999999994E-010    -9.8116513603939611E-007