  -1.2000000000000000E-009     0.0000000000000000     
  -1.1960000000000000E-009     0.0000000000000000     
  -1.1920000000000000E-009     0.0000000000000000     
  -1.1880000000000000E-009     0.0000000000000000     
  -1.1840000000000000E-009     4.9141820157145491E-021
  -1.1800000000000001E-009     4.0795569235953408E-020
  -1.1760000000000001E-009     1.8445019140242505E-019
  -1.1720000000000001E-009     5.9876988757812753E-019
  -1.1679999999999999E-009     1.5542474838929723E-018
  -1.1639999999999999E-009     3.4085320875148589E-018
  -1.1599999999999999E-009     6.5161866336597212E-018
  -1.1559999999999999E-009     1.1053952992523185E-017
  -1.1520000000000000E-009     1.6773280827037586E-017
  -1.1480000000000000E-009     2.2728029648313968E-017
  -1.1440000000000000E-009     2.7062867974959122E-017
  -1.1400000000000000E-009     2.6976182042793266E-017
  -1.1360000000000000E-009     1.8977558036328821E-017
  -1.1320000000000000E-009    -4.6740423519901360E-019
  -1.1280000000000000E-009    -3.3880564761031523E-017
  -1.1240000000000000E-009    -8.1388476425621471E-017
  -1.1200000000000001E-009    -1.3923952688925107E-016
  -1.1160000000000001E-009    -1.9859438624479868E-016
  -1.1120000000000001E-009    -2.4507892471583359E-016
  -1.1079999999999999E-009    -2.5962364528097732E-016
  -1.1039999999999999E-009    -2.2101787311047882E-016
  -1.0999999999999999E-009    -1.1034273268845711E-016
  -1.0959999999999999E-009     8.2991993961487315E-017
  -1.0920000000000000E-009     3.5445107970140532E-016
  -1.0880000000000000E-009     6.7826145701419168E-016
  -1.0840000000000000E-009     1.0038995533401541E-015
  -1.0800000000000000E-009     1.2572504691166592E-015
  -1.0760000000000000E-009     1.3481722576772661E-015
  -1.0720000000000000E-009     1.1852565790917644E-015
  -1.0680000000000000E-009     6.9704569837194042E-016
  -1.0640000000000000E-009    -1.4296427292802545E-016
  -1.0600000000000001E-009    -1.2921801497738501E-015
  -1.0560000000000001E-009    -2.6217807889946315E-015
  -1.0520000000000001E-009    -3.9132561718626551E-015
  -1.0480000000000001E-009    -4.8742952952651989E-015
  -1.0439999999999999E-009    -5.1770281008578113E-015
  -1.0399999999999999E-009    -4.5173745075444616E-015
  -1.0359999999999999E-009    -2.6889991534395403E-015
  -1.0320000000000000E-009     3.3993443829684376E-016
  -1.0280000000000000E-009     4.3631314794663207E-015
  -1.0240000000000000E-009     8.9032392914010525E-015
  -1.0200000000000000E-009     1.3225423670346846E-014
  -1.0160000000000000E-009     1.6407578123010688E-014
  -1.0120000000000000E-009     1.7468080692002262E-014
  -1.0080000000000000E-009     1.5540454892579848E-014
  -1.0040000000000000E-009     1.0072379378142707E-014
  -1.0000000000000001E-009     1.0165225621521874E-015
  -9.9600000000000008E-010    -1.1024801915120271E-014
  -9.9199999999999988E-010    -2.4738404060359535E-014
  -9.8799999999999990E-010    -3.8151690032517369E-014
  -9.8399999999999991E-010    -4.8811379173696809E-014
  -9.7999999999999992E-010    -5.4084225427843809E-014
  -9.7599999999999994E-010    -5.1552679020386005E-014
  -9.7199999999999995E-010    -3.9458158353211297E-014
  -9.6799999999999997E-010    -1.7129464734790720E-014
  -9.6399999999999998E-010     1.4672942566228684E-014
  -9.5999999999999999E-010     5.3562902347536334E-014
  -9.5600000000000001E-010     9.5537427792414924E-014
  -9.5200000000000002E-010     1.3521877550771002E-013
  -9.4800000000000004E-010     1.6633169986072423E-013
  -9.4400000000000005E-010     1.8238679898740119E-013
  -9.4000000000000006E-010     1.7751155423649129E-013
  -9.3600000000000008E-010     1.4734583258311204E-013
  -9.3200000000000009E-010     8.9902000108437142E-014
  -9.2800000000000000E-010     6.2820494595047907E-015
  -9.2400000000000001E-010    -9.8853206070675961E-014
  -9.1999999999999992E-010    -2.1715456647173515E-013
  -9.1599999999999994E-010    -3.3686387655118878E-013
  -9.1199999999999995E-010    -4.4354009170735598E-013
  -9.0799999999999997E-010    -5.2122982682989991E-013
  -9.0399999999999998E-010    -5.5403466234613681E-013
  -8.9999999999999999E-010    -5.2797877288879197E-013
  -8.9600000000000001E-010    -4.3303084072573726E-013
  -8.9200000000000002E-010    -2.6509204738709503E-013
  -8.8800000000000004E-010    -2.7730932452798266E-014
  -8.8400000000000005E-010     2.6656502512066411E-013
  -8.8000000000000006E-010     5.9583568675178671E-013
  -8.7599999999999997E-010     9.2896417065991631E-013
  -8.7199999999999999E-010     1.2269545447219172E-012
  -8.6800000000000000E-010     1.4451670828472915E-012
  -8.6400000000000001E-010     1.5363840586448382E-012
  -8.5999999999999993E-010     1.4544618526774472E-012
  -8.5599999999999994E-010     1.1582180250206912E-012
  -8.5199999999999995E-010     6.1513113044483608E-013
  -8.4799999999999997E-010    -1.9559502735440790E-013
  -8.4399999999999998E-010    -1.2810172889144209E-012
  -8.3999999999999999E-010    -2.6338153581102950E-012
  -8.3600000000000001E-010    -4.2332103819326448E-012
  -8.3200000000000002E-010    -6.0474506992113233E-012
  -8.2800000000000004E-010    -8.0376808329246506E-012
  -8.2400000000000005E-010    -1.0162832813872534E-011
  -8.2000000000000006E-010    -1.2385056071803385E-011
  -8.1599999999999997E-010    -1.4675093722957092E-011
  -8.1199999999999999E-010    -1.7017040315585340E-011
  -8.0800000000000000E-010    -1.9411936103810631E-011
  -8.0400000000000002E-010    -2.1879811896461242E-011
  -7.9999999999999993E-010    -2.4459947700622609E-011
  -7.9599999999999994E-010    -2.7209311935925271E-011
  -7.9199999999999995E-010    -3.0199353732037133E-011
  -7.8799999999999997E-010    -3.3511493444971107E-011
  -7.8399999999999998E-010    -3.7231789441633063E-011
  -7.7999999999999999E-010    -4.1445364192598067E-011
  -7.7600000000000001E-010    -4.6231197401596890E-011
  -7.7200000000000002E-010    -5.1657846472379302E-011
  -7.6800000000000004E-010    -5.7780605247746998E-011
  -7.6400000000000005E-010    -6.4640422398366506E-011
  -7.6000000000000006E-010    -7.2264812081851541E-011
  -7.5600000000000008E-010    -8.0670686689783082E-011
  -7.5199999999999999E-010    -8.9868945997410648E-011
  -7.4800000000000000E-010    -9.9870331578917503E-011
  -7.4400000000000002E-010    -1.1069204929401729E-010
  -7.3999999999999993E-010    -1.2236436051070042E-010
  -7.3599999999999994E-010    -1.3493645091737851E-010
  -7.3199999999999995E-010    -1.4848075846637805E-010
  -7.2799999999999997E-010    -1.6309526874308671E-010
  -7.2399999999999998E-010    -1.7890326334362747E-010
  -7.2000000000000000E-010    -1.9605051556119785E-010
  -7.1600000000000001E-010    -2.1470001446156328E-010
  -7.1200000000000002E-010    -2.3502485338302460E-010
  -7.0800000000000004E-010    -2.5720005945423942E-010
  -7.0400000000000005E-010    -2.8139433838030663E-010
  -6.9999999999999996E-010    -3.0776281800385884E-010
  -6.9599999999999997E-010    -3.3644198017099282E-010
  -6.9199999999999999E-010    -3.6754744852208953E-010
  -6.8800000000000000E-010    -4.0117513877993684E-010
  -6.8400000000000002E-010    -4.3740623516231953E-010
  -6.8000000000000003E-010    -4.7631547889349610E-010
  -6.7600000000000004E-010    -5.1798216963779628E-010
  -6.7199999999999995E-010    -5.6250303434083874E-010
  -6.6799999999999997E-010    -6.1000571706078079E-010
  -6.6399999999999998E-010    -6.6066152913036906E-010
  -6.6000000000000000E-010    -7.1469655388399333E-010
  -6.5600000000000001E-010    -7.7239975358003652E-010
  -6.5200000000000002E-010    -8.3412745452399874E-010
  -6.4800000000000004E-010    -9.0030338429722742E-010
  -6.4400000000000005E-010    -9.7141503591317912E-010
  -6.3999999999999996E-010    -1.0480050546200631E-009
  -6.3599999999999998E-010    -1.1306598991668267E-009
  -6.3199999999999999E-010    -1.2199952291399586E-009
  -6.2800000000000000E-010    -1.3166398588217887E-009
  -6.2400000000000002E-010    -1.4212191266947164E-009
  -6.2000000000000003E-010    -1.5343397821432971E-009
  -6.1600000000000004E-010    -1.6565766275066797E-009
  -6.1199999999999995E-010    -1.7884637359380415E-009
  -6.0799999999999997E-010    -1.9304904386869586E-009
  -6.0399999999999998E-010    -2.0831031524374193E-009
  -6.0000000000000000E-010    -2.2467138886948026E-009
  -5.9600000000000001E-010    -2.4217156305388825E-009
  -5.9200000000000002E-010    -2.6085032402691987E-009
  -5.8800000000000004E-010    -2.8074997353482611E-009
  -5.8400000000000005E-010    -3.0191848583109030E-009
  -5.7999999999999996E-010    -3.2441262994295884E-009
  -5.7599999999999998E-010    -3.4830082530563830E-009
  -5.7199999999999999E-010    -3.7366580030720785E-009
  -5.6800000000000000E-010    -4.0060658266190169E-009
  -5.6400000000000002E-010    -4.2923973810229934E-009
  -5.6000000000000003E-010    -4.5969984906023904E-009
  -5.5600000000000004E-010    -4.9213887086903567E-009
  -5.5199999999999995E-010    -5.2672470116047752E-009
  -5.4799999999999997E-010    -5.6363883625616720E-009
  -5.4399999999999998E-010    -6.0307340783400018E-009
  -5.4000000000000000E-010    -6.4522755342607181E-009
  -5.3600000000000001E-010    -6.9030390446827233E-009
  -5.3200000000000002E-010    -7.3850476139836867E-009
  -5.2800000000000004E-010    -7.9002907672623102E-009
  -5.2400000000000005E-010    -8.4506979987426594E-009
  -5.1999999999999996E-010    -9.0381249943212642E-009
  -5.1599999999999998E-010    -9.6643491003602638E-009
  -5.1199999999999999E-010    -1.0331081387147737E-008
  -5.0800000000000000E-010    -1.1039989389044408E-008
  -5.0400000000000002E-010    -1.1792735257610074E-008
  -5.0000000000000003E-010    -1.2591024959142143E-008
  -4.9600000000000004E-010    -1.3436662151063560E-008
  -4.9199999999999996E-010    -1.4331613106168415E-008
  -4.8799999999999997E-010    -1.5278065366657763E-008
  -4.8399999999999998E-010    -1.6278481114195390E-008
  -4.8000000000000000E-010    -1.7335644047958135E-008
  -4.7600000000000001E-010    -1.8452688877114005E-008
  -4.7200000000000002E-010    -1.9633114068518878E-008
  -4.6800000000000004E-010    -2.0880776095937216E-008
  -4.6400000000000005E-010    -2.2199871101752399E-008
  -4.5999999999999996E-010    -2.3594884842245246E-008
  -4.5599999999999998E-010    -2.5070549402219208E-008
  -4.5199999999999999E-010    -2.6631779641392296E-008
  -4.4800000000000000E-010    -2.8283609683212522E-008
  -4.4400000000000002E-010    -3.0031136662180874E-008
  -4.4000000000000003E-010    -3.1879466535253976E-008
  -4.3600000000000005E-010    -3.3833679413762529E-008
  -4.3199999999999996E-010    -3.5898811508808442E-008
  -4.2799999999999997E-010    -3.8079855069047847E-008
  -4.2399999999999998E-010    -4.0381771002476718E-008
  -4.2000000000000000E-010    -4.2809534533433651E-008
  -4.1600000000000001E-010    -4.5368181703355170E-008
  -4.1200000000000002E-010    -4.8062875283157081E-008
  -4.0800000000000004E-010    -5.0898972121249645E-008
  -4.0400000000000005E-010    -5.3882088631801439E-008
  -3.9999999999999996E-010    -5.7018180006767091E-008
  -3.9599999999999998E-010    -6.0313587819257206E-008
  -3.9199999999999999E-010    -6.3775085613969149E-008
  -3.8800000000000000E-010    -6.7409898878599529E-008
  -3.8400000000000002E-010    -7.1225730369045828E-008
  -3.8000000000000003E-010    -7.5230732866301452E-008
  -3.7600000000000005E-010    -7.9433496452508472E-008
  -3.7200000000000006E-010    -8.3843002218713885E-008
  -3.6799999999999997E-010    -8.8468588788124940E-008
  -3.6399999999999998E-010    -9.3319863876549409E-008
  -3.6000000000000000E-010    -9.8406691627110352E-008
  -3.5600000000000001E-010    -1.0373910227130812E-007
  -3.5200000000000003E-010    -1.0932727504423959E-007
  -3.4800000000000004E-010    -1.1518150451854781E-007
  -3.4400000000000005E-010    -1.2131215754668693E-007
  -3.3999999999999996E-010    -1.2772969332226199E-007
  -3.3599999999999998E-010    -1.3444464229083274E-007
  -3.3199999999999999E-010    -1.4146764123018261E-007
  -3.2800000000000000E-010    -1.4880944337034066E-007
  -3.2400000000000002E-010    -1.5648094642080769E-007
  -3.2000000000000003E-010    -1.6449321844064609E-007
  -3.1600000000000005E-010    -1.7285757998049774E-007
  -3.1200000000000006E-010    -1.8158556351559065E-007
  -3.0799999999999997E-010    -1.9068901308268652E-007
  -3.0399999999999998E-010    -2.0018006434490128E-007
  -3.0000000000000000E-010    -2.1007122410009364E-007
  -2.9600000000000001E-010    -2.2037536875822943E-007
  -2.9200000000000003E-010    -2.3110573452225478E-007
  -2.8800000000000004E-010    -2.4227596487798252E-007
  -2.8400000000000005E-010    -2.5390007012233036E-007
  -2.7999999999999996E-010    -2.6599243420138934E-007
  -2.7599999999999998E-010    -2.7856777856560156E-007
  -2.7199999999999999E-010    -2.9164111216202226E-007
  -2.6800000000000011E-010    -3.0522767664403703E-007
  -2.6399999999999992E-010    -3.1934288522698877E-007
  -2.5999999999999993E-010    -3.3400226079595966E-007
  -2.5599999999999994E-010    -3.4922137887484424E-007
  -2.5199999999999996E-010    -3.6501571122054703E-007
  -2.4799999999999997E-010    -3.8140067722811469E-007
  -2.4399999999999998E-010    -3.9839149484871349E-007
  -2.4000000000000000E-010    -4.1600321230245188E-007
  -2.3600000000000001E-010    -4.3425065794721721E-007
  -2.3200000000000003E-010    -4.5314848776479936E-007
  -2.2800000000000004E-010    -4.7271106430262179E-007
  -2.2400000000000005E-010    -4.9295263981354859E-007
  -2.2000000000000007E-010    -5.1388729667036934E-007
  -2.1600000000000008E-010    -5.3552903998388656E-007
  -2.1200000000000010E-010    -5.5789184884580587E-007
  -2.0800000000000011E-010    -5.8098968799134258E-007
  -2.0399999999999992E-010    -6.0483660925748959E-007
  -1.9999999999999993E-010    -6.2944656873864874E-007
  -1.9599999999999994E-010    -6.5483382834729871E-007
  -1.9199999999999996E-010    -6.8101240080460465E-007
  -1.8799999999999997E-010    -7.0799644238915261E-007
  -1.8399999999999998E-010    -7.3579995412545548E-007
  -1.8000000000000000E-010    -7.6443675570929519E-007
  -1.7600000000000001E-010    -7.9392022468280091E-007
  -1.7200000000000003E-010    -8.2426339821241701E-007
  -1.6800000000000004E-010    -8.5547874621079864E-007
  -1.6400000000000005E-010    -8.8757804837717061E-007
  -1.6000000000000007E-010    -9.2057231900382169E-007
  -1.5600000000000008E-010    -9.5447168651398586E-007
  -1.5200000000000010E-010    -9.8928540719469825E-007
  -1.4800000000000011E-010    -1.0250218134934710E-006
  -1.4399999999999992E-010    -1.0616882318849903E-006
  -1.3999999999999993E-010    -1.0992911099378099E-006
  -1.3599999999999994E-010    -1.1378360192071659E-006
  -1.3199999999999996E-010    -1.1773276292095431E-006
  -1.2799999999999997E-010    -1.2177697637531746E-006
  -1.2399999999999999E-010    -1.2591654034152229E-006
  -1.2000000000000000E-010    -1.3015166166991354E-006
  -1.1600000000000001E-010    -1.3448247889745931E-006
  -1.1200000000000003E-010    -1.3890902516407032E-006
  -1.0800000000000004E-010    -1.4343127084731940E-006
  -1.0400000000000005E-010    -1.4804906815922057E-006
  -1.0000000000000007E-010    -1.5276218465794212E-006
  -9.6000000000000082E-011    -1.5757026611375722E-006
  -9.2000000000000096E-011    -1.6247286052625626E-006
  -8.8000000000000110E-011    -1.6746936696009860E-006
  -8.3999999999999917E-011    -1.7255907388732572E-006
  -7.9999999999999931E-011    -1.7774112165399284E-006
  -7.5999999999999944E-011    -1.8301450067411247E-006
  -7.1999999999999958E-011    -1.8837807069970208E-006
  -6.7999999999999972E-011    -1.9383051681677687E-006
  -6.3999999999999986E-011    -1.9937036400389171E-006
  -6.0000000000000000E-011    -2.0499597448447285E-006
  -5.6000000000000013E-011    -2.1070553202565716E-006
  -5.2000000000000027E-011    -2.1649703024756951E-006
  -4.8000000000000041E-011    -2.2236831485972521E-006
  -4.4000000000000055E-011    -2.2831702446645292E-006
  -4.0000000000000069E-011    -2.3434065462160003E-006
  -3.6000000000000082E-011    -2.4043645957350592E-006
  -3.2000000000000096E-011    -2.4660155244749015E-006
  -2.8000000000000110E-011    -2.5283284844190983E-006
  -2.3999999999999917E-011    -2.5912707677561840E-006
  -1.9999999999999931E-011    -2.6548083269762608E-006
  -1.5999999999999945E-011    -2.7189045310328936E-006
  -1.1999999999999959E-011    -2.7835219057783062E-006
  -7.9999999999999724E-012    -2.8486208159115463E-006
  -3.9999999999999862E-012    -2.9141601613557621E-006
   0.0000000000000000         -2.9800968149352147E-006
   3.9999999999999862E-012    -3.0463866315899225E-006
   7.9999999999999724E-012    -3.1129833427919191E-006
   1.1999999999999959E-011    -3.1798395530136519E-006
   1.5999999999999945E-011    -3.2469055250288934E-006
   1.9999999999999931E-011    -3.3141303448754739E-006
   2.3999999999999917E-011    -3.3814608105444517E-006
   2.7999999999999903E-011    -3.4488419258502875E-006
   3.1999999999999889E-011    -3.5162172773439600E-006
   3.6000000000000082E-011    -3.5835277111738788E-006
   4.0000000000000069E-011    -3.6507130344499825E-006
   4.4000000000000055E-011    -3.7177100939570321E-006
   4.8000000000000041E-011    -3.7844550917623870E-006
   5.2000000000000027E-011    -3.8508811813423750E-006
   5.6000000000000013E-011    -3.9169208510985354E-006
   6.0000000000000000E-011    -3.9825041265193671E-006
   6.3999999999999986E-011    -4.0475602840758843E-006
   6.7999999999999972E-011    -4.1120167353136072E-006
   7.1999999999999958E-011    -4.1758003224664018E-006
   7.5999999999999944E-011    -4.2388363714904777E-006
   7.9999999999999931E-011    -4.3010495599121578E-006
   8.3999999999999917E-011    -4.3623626644142830E-006
   8.7999999999999903E-011    -4.4226989402612631E-006
   9.1999999999999889E-011    -4.4819801041063800E-006
   9.6000000000000082E-011    -4.5401270469677614E-006
   1.0000000000000007E-010    -4.5970604467507476E-006
   1.0400000000000005E-010    -4.6526999296637380E-006
   1.0800000000000004E-010    -4.7069641631056704E-006
   1.1200000000000003E-010    -4.7597719465453700E-006
   1.1600000000000001E-010    -4.8110408782815169E-006
   1.2000000000000000E-010    -4.8606883528261036E-006
   1.2399999999999999E-010    -4.9086312473010908E-006
   1.2799999999999997E-010    -4.9547861647405361E-006
   1.3199999999999996E-010    -4.9990697958673134E-006
   1.3599999999999994E-010    -5.0413989659352930E-006
   1.3999999999999993E-010    -5.0816899807784712E-006
   1.4399999999999992E-010    -5.1198600136416889E-006
   1.4799999999999990E-010    -5.1558262925505637E-006
   1.5199999999999989E-010    -5.1895066424583272E-006
   1.5600000000000008E-010    -5.2208197942325991E-006
   1.6000000000000007E-010    -5.2496843128240230E-006
   1.6400000000000005E-010    -5.2760213486678210E-006
   1.6800000000000004E-010    -5.2997511749797772E-006
   1.7200000000000003E-010    -5.3207953752668363E-006
   1.7600000000000001E-010    -5.3390770298035088E-006
   1.8000000000000000E-010    -5.3545207848347986E-006
   1.8399999999999998E-010    -5.3670523982564927E-006
   1.8799999999999997E-010    -5.3765988079052494E-006
   1.9199999999999996E-010    -5.3830894956587162E-006
   1.9599999999999994E-010    -5.3864552110149623E-006
   1.9999999999999993E-010    -5.3866290112123271E-006
   2.0399999999999992E-010    -5.3835459378720444E-006
   2.0799999999999990E-010    -5.3771435519514313E-006
   2.1199999999999989E-010    -5.3673622999534052E-006
   2.1600000000000008E-010    -5.3541447560149546E-006
   2.2000000000000007E-010    -5.3374361549531005E-006
   2.2400000000000005E-010    -5.3171843750742021E-006
   2.2800000000000004E-010    -5.2933396899969341E-006
   2.3200000000000003E-010    -5.2658559669336730E-006
   2.3600000000000001E-010    -5.2346892683996501E-006
   2.4000000000000000E-010    -5.1997981336612334E-006
   2.4399999999999998E-010    -5.1611446518680697E-006
   2.4799999999999997E-010    -5.1186936486599628E-006
   2.5199999999999996E-010    -5.0724123540166548E-006
   2.5599999999999994E-010    -5.0222719421233359E-006
   2.5999999999999993E-010    -4.9682473469194972E-006
   2.6399999999999992E-010    -4.9103154463236104E-006
   2.6799999999999990E-010    -4.8484585135020000E-006
   2.7199999999999989E-010    -4.7826612920606964E-006
   2.7600000000000008E-010    -4.7129136447509245E-006
   2.8000000000000007E-010    -4.6392080888219948E-006
   2.8400000000000005E-010    -4.5615424530587858E-006
   2.8800000000000004E-010    -4.4799188246338083E-006
   2.9200000000000003E-010    -4.3943425321150348E-006
   2.9600000000000001E-010    -4.3048235262495451E-006
   3.0000000000000000E-010    -4.2113764958701239E-006
   3.0399999999999998E-010    -4.1140198477077168E-006
   3.0799999999999997E-010    -4.0127762726254841E-006
   3.1199999999999996E-010    -3.9076718179338898E-006
   3.1599999999999994E-010    -3.7987375232992864E-006
   3.1999999999999993E-010    -3.6860082888974322E-006
   3.2399999999999992E-010    -3.5695231290747369E-006
   3.2799999999999990E-010    -3.4493244935156406E-006
   3.3199999999999989E-010    -3.3254597395597485E-006
   3.3600000000000008E-010    -3.1979798537977502E-006
   3.4000000000000007E-010    -3.0669403242652759E-006
   3.4400000000000005E-010    -2.9324007196974256E-006
   3.4800000000000004E-010    -2.7944245542057250E-006
   3.5200000000000003E-010    -2.6530799024840728E-006
   3.5600000000000001E-010    -2.5084389967035773E-006
   3.6000000000000000E-010    -2.3605778652441890E-006
   3.6399999999999998E-010    -2.2095770073815241E-006
   3.6799999999999997E-010    -2.0555204195979101E-006
   3.7199999999999996E-010    -1.8984959897325686E-006
   3.7599999999999994E-010    -1.7385952444722987E-006
   3.7999999999999993E-010    -1.5759135126290955E-006
   3.8399999999999991E-010    -1.4105496106727435E-006
   3.8799999999999990E-010    -1.2426055338583411E-006
   3.9199999999999989E-010    -1.0721872562876842E-006
   3.9599999999999987E-010    -8.9940391503657672E-007
   4.0000000000000007E-010    -7.2436820759522379E-007
   4.0400000000000005E-010    -5.4719615947500514E-007
   4.0800000000000004E-010    -3.6800713652335991E-007
   4.1200000000000002E-010    -1.8692358851070637E-007
   4.1600000000000001E-010    -4.0712217538504208E-009
   4.2000000000000000E-010     1.8042131378489855E-007
   4.2399999999999998E-010     3.6642271322767538E-007
   4.2799999999999997E-010     5.5379890769016441E-007
   4.3199999999999996E-010     7.4241361489014896E-007
   4.3599999999999994E-010     9.3212856500319343E-007
   4.3999999999999993E-010     1.1228034849743301E-006
   4.4399999999999991E-010     1.3142963939231022E-006
   4.4799999999999990E-010     1.5064639439169018E-006
   4.5199999999999989E-010     1.6991612843709008E-006
   4.5599999999999987E-010     1.8922424559360477E-006
   4.6000000000000007E-010     2.0855603785173297E-006
   4.6400000000000005E-010     2.2789669343158072E-006
   4.6800000000000004E-010     2.4723128779289411E-006
   4.7200000000000002E-010     2.6654481827325175E-006
   4.7600000000000001E-010     2.8582217521732726E-006
   4.8000000000000000E-010     3.0504818034181505E-006
   4.8399999999999998E-010     3.2420761347815728E-006
   4.8799999999999997E-010     3.4328515195369026E-006
   4.9199999999999996E-010     3.6226545742079201E-006
   4.9599999999999994E-010     3.8113319342576550E-006
   4.9999999999999993E-010     3.9987302687047141E-006
   5.0399999999999991E-010     4.1846966243920123E-006
   5.0799999999999990E-010     4.3690789334530694E-006
   5.1199999999999989E-010     4.5517260064114933E-006
   5.1599999999999987E-010     4.7324880752093798E-006
   5.2000000000000007E-010     4.9112163959628697E-006
   5.2400000000000005E-010     5.0877644888584973E-006
   5.2800000000000004E-010     5.2619877039188526E-006
   5.3200000000000002E-010     5.4337427832292055E-006
   5.3600000000000001E-010     5.6028877748985648E-006
   5.4000000000000000E-010     5.7692845510963300E-006
   5.4399999999999998E-010     5.9327952813828906E-006
   5.4799999999999997E-010     6.0932857555506382E-006
   5.5199999999999995E-010     6.2506237119463375E-006
   5.5599999999999994E-010     6.4046789015433516E-006
   5.5999999999999993E-010     6.5553240285317597E-006
   5.6399999999999991E-010     6.7024348146125224E-006
   5.6799999999999990E-010     6.8458904389623542E-006
   5.7199999999999989E-010     6.9855724636588394E-006
   5.7599999999999987E-010     7.1213669230995201E-006
   5.8000000000000007E-010     7.2531626510971433E-006
   5.8400000000000005E-010     7.3808536506071915E-006
   5.8800000000000004E-010     7.5043371368511287E-006
   5.9200000000000002E-010     7.6235144547375811E-006
   5.9600000000000001E-010     7.7382917850848391E-006
   6.0000000000000000E-010     7.8485791975794920E-006
   6.0399999999999998E-010     7.9542915091997158E-006
   6.0799999999999997E-010     8.0553468067918957E-006
   6.1199999999999995E-010     8.1516681620718036E-006
   6.1599999999999994E-010     8.2431832514385738E-006
   6.1999999999999993E-010     8.3298233662347227E-006
   6.2399999999999991E-010     8.4115246919594797E-006
   6.2799999999999990E-010     8.4882284938435265E-006
   6.3199999999999989E-010     8.5598804208326712E-006
   6.3599999999999987E-010     8.6264315096619647E-006
   6.4000000000000006E-010     8.6878379105675465E-006
   6.4400000000000005E-010     8.7440607394800922E-006
   6.4800000000000004E-010     8.7950662035935340E-006
   6.5200000000000002E-010     8.8408277064926941E-006
   6.5600000000000001E-010     8.8813212868273245E-006
   6.6000000000000000E-010     8.9165317472080713E-006
   6.6399999999999978E-010     8.9464470452935027E-006
   6.6800000000000017E-010     8.9710621311431625E-006
   6.7200000000000016E-010     8.9903773852522006E-006
   6.7600000000000015E-010     9.0043964919662586E-006
   6.8000000000000013E-010     9.0131303109338608E-006
   6.8400000000000012E-010     9.0165948747357185E-006
   6.8800000000000011E-010     9.0148089860282645E-006
   6.9200000000000009E-010     9.0077986326935469E-006
   6.9600000000000008E-010     8.9955926659732212E-006
   7.0000000000000006E-010     8.9782270046222084E-006
   7.0400000000000005E-010     8.9557402144499982E-006
   7.0800000000000004E-010     8.9281785334706169E-006
   7.1200000000000002E-010     8.8955903450161750E-006
   7.1600000000000001E-010     8.8580304685547445E-006
   7.2000000000000000E-010     8.8155584758049635E-006
   7.2399999999999998E-010     8.7682390174881118E-006
   7.2799999999999997E-010     8.7161421192424093E-006
   7.3199999999999995E-010     8.6593406691735785E-006
   7.3599999999999994E-010     8.5979141911458114E-006
   7.3999999999999993E-010     8.5319449820022594E-006
   7.4399999999999991E-010     8.4615195388095252E-006
   7.4799999999999990E-010     8.3867296247647475E-006
   7.5199999999999988E-010     8.3076690616500635E-006
   7.5599999999999987E-010     8.2244361383119326E-006
   7.5999999999999986E-010     8.1371314258514608E-006
   7.6399999999999984E-010     8.0458590550674566E-006
   7.6799999999999983E-010     7.9507285909226812E-006
   7.7199999999999982E-010     7.8518495595576956E-006
   7.7599999999999980E-010     7.7493376789468670E-006
   7.7999999999999979E-010     7.6433094223074524E-006
   7.8399999999999977E-010     7.5338853389327365E-006
   7.8800000000000017E-010     7.4211888585900374E-006
   7.9200000000000016E-010     7.3053449247194673E-006
   7.9600000000000015E-010     7.1864822546887597E-006
   8.0000000000000013E-010     7.0647305917475599E-006
   8.0400000000000012E-010     6.9402223413484724E-006
   8.0800000000000010E-010     6.8130905004095657E-006
   8.1200000000000009E-010     6.6834700414818606E-006
   8.1600000000000008E-010     6.5514960613066953E-006
   8.2000000000000006E-010     6.4173047440359962E-006
   8.2400000000000005E-010     6.2810323309220816E-006
   8.2800000000000004E-010     6.1428158917529547E-006
   8.3200000000000002E-010     6.0027922676283591E-006
   8.3600000000000001E-010     5.8610989862772678E-006
   8.3999999999999999E-010     5.7178732771249156E-006
   8.4399999999999998E-010     5.5732525691636924E-006
   8.4799999999999997E-010     5.4273742382543630E-006
   8.5199999999999995E-010     5.2803760221983251E-006
   8.5599999999999994E-010     5.1323952139482412E-006
   8.5999999999999993E-010     4.9835687762323338E-006
   8.6399999999999991E-010     4.8340339573675463E-006
   8.6799999999999990E-010     4.6839264173917415E-006
   8.7199999999999988E-010     4.5333816899136763E-006
   8.7599999999999987E-010     4.3825337825332232E-006
   8.7999999999999986E-010     4.2315140720645213E-006
   8.8399999999999984E-010     4.0804532057023814E-006
   8.8799999999999983E-010     3.9294793114257402E-006
   8.9199999999999981E-010     3.7787175948755881E-006
   8.9599999999999980E-010     3.6282913797474801E-006
   8.9999999999999979E-010     3.4783206435823070E-006
   9.0399999999999977E-010     3.3289230430566536E-006
   9.0799999999999976E-010     3.1802136197237456E-006
   9.1200000000000016E-010     3.0323039075036831E-006
   9.1600000000000015E-010     2.8853037075910542E-006
   9.2000000000000013E-010     2.7393198771407855E-006
   9.2400000000000012E-010     2.5944567573294692E-006
   9.2800000000000010E-010     2.4508154183430569E-006
   9.3200000000000009E-010     2.3084945853072703E-006
   9.3600000000000008E-010     2.1675902908546028E-006
   9.4000000000000006E-010     2.0281949091821184E-006
   9.4400000000000005E-010     1.8903979247967745E-006
   9.4800000000000004E-010     1.7542852616076008E-006
   9.5200000000000002E-010     1.6199393599033188E-006
   9.5600000000000001E-010     1.4874388847670243E-006
   9.5999999999999999E-010     1.3568584297059119E-006
   9.6399999999999998E-010     1.2282691962301865E-006
   9.6799999999999997E-010     1.1017383941074234E-006
   9.7199999999999995E-010     9.7732945711778794E-007
   9.7599999999999994E-010     8.5510223151782027E-007