  -1.2000000000000000E-009     0.0000000000000000     
  -1.1960000000000000E-009     0.0000000000000000     
  -1.1920000000000000E-009     0.0000000000000000     
  -1.1880000000000000E-009     0.0000000000000000     
  -1.1840000000000000E-009     0.0000000000000000     
  -1.1800000000000001E-009     0.0000000000000000     
  -1.1760000000000001E-009     0.0000000000000000     
  -1.1720000000000001E-009     0.0000000000000000     
  -1.1679999999999999E-009     0.0000000000000000     
  -1.1639999999999999E-009     0.0000000000000000     
  -1.1599999999999999E-009     0.0000000000000000     
  -1.1559999999999999E-009     0.0000000000000000     
  -1.1520000000000000E-009     0.0000000000000000     
  -1.1480000000000000E-009     0.0000000000000000     
  -1.1440000000000000E-009     0.0000000000000000     
  -1.1400000000000000E-009     0.0000000000000000     
  -1.1360000000000000E-009     0.0000000000000000     
  -1.1320000000000000E-009     0.0000000000000000     
  -1.1280000000000000E-009     0.0000000000000000     
  -1.1240000000000000E-009     0.0000000000000000     
  -1.1200000000000001E-009     0.0000000000000000     
  -1.1160000000000001E-009     0.0000000000000000     
  -1.1120000000000001E-009     0.0000000000000000     
  -1.1079999999999999E-009     0.0000000000000000     
  -1.1039999999999999E-009     0.0000000000000000     
  -1.0999999999999999E-009     0.0000000000000000     
  -1.0959999999999999E-009     0.0000000000000000     
  -1.0920000000000000E-009     0.0000000000000000     
  -1.0880000000000000E-009     0.0000000000000000     
  -1.0840000000000000E-009     0.0000000000000000     
  -1.0800000000000000E-009     0.0000000000000000     
  -1.0760000000000000E-009     0.0000000000000000     
  -1.0720000000000000E-009     0.0000000000000000     
  -1.0680000000000000E-009     0.0000000000000000     
  -1.0640000000000000E-009     0.0000000000000000     
  -1.0600000000000001E-009     0.0000000000000000     
  -1.0560000000000001E-009     0.0000000000000000     
  -1.0520000000000001E-009     0.0000000000000000     
  -1.0480000000000001E-009     0.0000000000000000     
  -1.0439999999999999E-009     0.0000000000000000     
  -1.0399999999999999E-009     0.0000000000000000     
  -1.0359999999999999E-009    -3.9211550570677129E-046
  -1.0320000000000000E-009    -9.1493617998246635E-046
  -1.0280000000000000E-009    -1.4377568542581614E-045
  -1.0240000000000000E-009    -1.1457162994470686E-045
  -1.0200000000000000E-009     7.1478627819110947E-046
  -1.0160000000000000E-009     5.8429180700523816E-045
  -1.0120000000000000E-009     1.5484470326479495E-044
  -1.0080000000000000E-009     2.9739517998368128E-044
  -1.0040000000000000E-009     4.2135903834026812E-044
  -1.0000000000000001E-009     3.8274877578344019E-044
  -9.9600000000000008E-010    -1.3691728034748137E-044
  -9.9199999999999988E-010    -1.5145355912021646E-043
  -9.8799999999999990E-010    -3.9964433123632609E-043
  -9.8399999999999991E-010    -7.3179357381382532E-043
  -9.7999999999999992E-010    -9.9882304170042169E-043
  -9.7599999999999994E-010    -8.6522034875665305E-043
  -9.7199999999999995E-010     2.1497809637596261E-043
  -9.6799999999999997E-010     2.8652841724752963E-042
  -9.6399999999999998E-010     7.4105348345583443E-042
  -9.5999999999999999E-010     1.3176331532083128E-041
  -9.5600000000000001E-010     1.7540583856782907E-041
  -9.5200000000000002E-010     1.5146134098387739E-041
  -9.4800000000000004E-010    -1.9623542108923980E-042
  -9.4400000000000005E-010    -4.2102702988308689E-041
  -9.4000000000000006E-010    -1.0847597082481549E-040
  -9.3600000000000008E-010    -1.9012866651965180E-040
  -9.3200000000000009E-010    -2.5108571463351840E-040
  -9.2800000000000000E-010    -2.2279441828689746E-040
  -9.2400000000000001E-010    -9.0264271843715234E-042
  -9.1999999999999992E-010     4.8499172484518100E-040
  -9.1599999999999994E-010     1.2893605365080730E-039
  -9.1199999999999995E-010     2.2728846366502355E-039
  -9.0799999999999997E-010     3.0355113045852313E-039
  -9.0399999999999998E-010     2.8442237180374922E-039
  -8.9999999999999999E-010     7.0000264863472262E-040
  -8.9600000000000001E-010    -4.3607566369720054E-039
  -8.9200000000000002E-010    -1.2656128288357193E-038
  -8.8800000000000004E-010    -2.2968712766987315E-038
  -8.8400000000000005E-010    -3.1596557144551223E-038
  -8.8000000000000006E-010    -3.1824871673809623E-038
  -8.7599999999999997E-010    -1.4544800402140855E-038
  -8.7199999999999999E-010     2.9171189097804153E-038
  -8.6800000000000000E-010     1.0300875574775739E-037
  -8.6400000000000001E-010     1.9817386925792202E-037
  -8.5999999999999993E-010     2.8574464401181653E-037
  -8.5599999999999994E-010     3.1225867042816504E-037
  -8.5199999999999995E-010     2.0387684701141706E-037
  -8.4799999999999997E-010    -1.1506836161315472E-037
  -8.4399999999999998E-010    -6.8541439455391034E-037
  -8.3999999999999999E-010    -1.4604780756284420E-036
  -8.3600000000000001E-010    -2.2492302267243837E-036
  -8.3200000000000002E-010    -2.6796357604834384E-036
  -8.2800000000000004E-010    -2.2175303346104263E-036
  -8.2400000000000005E-010    -2.7969609403604004E-037
  -8.2000000000000006E-010     3.5326476420496379E-036
  -8.1599999999999997E-010     9.0887517409818274E-036
  -8.1199999999999999E-010     1.5339744578376424E-035
  -8.0800000000000000E-010     2.0029814218743097E-035
  -8.0400000000000002E-010     1.9719489093183820E-035
  -7.9999999999999993E-010     1.0360108460444075E-035
  -7.9599999999999994E-010    -1.1401229592660160E-035
  -7.9199999999999995E-010    -4.6191984999163248E-035
  -7.8799999999999997E-010    -8.9487668160426033E-035
  -7.8399999999999998E-010    -1.2953600152933936E-034
  -7.7999999999999999E-010    -1.4678602471542856E-034
  -7.7600000000000001E-010    -1.1618712251890750E-034
  -7.7200000000000002E-010    -1.3507887468115662E-035
  -7.6800000000000004E-010     1.7402444994082907E-034
  -7.6400000000000005E-010     4.3403591274295413E-034
  -7.6000000000000006E-010     7.1568574823381997E-034
  -7.5600000000000008E-010     9.2236255816165623E-034
  -7.5199999999999999E-010     9.1751548826280972E-034
  -7.4800000000000000E-010     5.5035538020984324E-034
  -7.4400000000000002E-010    -2.9514584437972794E-034
  -7.3999999999999993E-010    -1.6313641119145478E-033
  -7.3599999999999994E-010    -3.2915970362254099E-033
  -7.3199999999999995E-010    -4.8726699457419590E-033
  -7.2799999999999997E-010    -5.7290932753641783E-033
  -7.2399999999999998E-010    -5.0541629798164829E-033
  -7.2000000000000000E-010    -2.0731513668704612E-033
  -7.1600000000000001E-010     3.6521969365620652E-033
  -7.1200000000000002E-010     1.1850047420951397E-032
  -7.0800000000000004E-010     2.1188795640788219E-032
  -7.0400000000000005E-010     2.9091674706834650E-032
  -6.9999999999999996E-010     3.1880562057662657E-032
  -6.9599999999999997E-010     2.5393904405223376E-032
  -6.9199999999999999E-010     6.1406970626495887E-033
  -6.8800000000000000E-010    -2.7099088153410653E-032
  -6.8400000000000002E-010    -7.1522860374945135E-032
  -6.8000000000000003E-010    -1.1891513911431131E-031
  -6.7600000000000004E-010    -1.5529197435573264E-031
  -6.7199999999999995E-010    -1.6227229679053942E-031
  -6.6799999999999997E-010    -1.2066379984068829E-031
  -6.6399999999999998E-010    -1.6275403586239244E-032
  -6.6000000000000000E-010     1.5275941395555514E-031
  -6.5600000000000001E-010     3.6872997284764767E-031
  -6.5200000000000002E-010     5.8953788048144933E-031
  -6.4800000000000004E-010     7.4911605885924870E-031
  -6.4400000000000005E-010     7.6559071986493159E-031
  -6.3999999999999996E-010     5.5848960360143798E-031
  -6.3599999999999998E-010     7.4092905926559430E-032
  -6.3199999999999999E-010    -6.8494326459222558E-031
  -6.2800000000000000E-010    -1.6327117454208642E-030
  -6.2400000000000002E-010    -2.5853733398446926E-030
  -6.2000000000000003E-010    -3.2687361627544460E-030
  -6.1600000000000004E-010    -3.3559938023965268E-030
  -6.1199999999999995E-010    -2.5379951048213555E-030
  -6.0799999999999997E-010    -6.1979377053409729E-031
  -6.0399999999999998E-010     2.3731901069547023E-030
  -6.0000000000000000E-010     6.1059041811213919E-030
  -5.9600000000000001E-010     9.8938373432791761E-030
  -5.9200000000000002E-010     1.2744126901188525E-029
  -5.8800000000000004E-010     1.3498418575765680E-029
  -5.8400000000000005E-010     1.1077506497134240E-029
  -5.7999999999999996E-010     4.7990566394844586E-030
  -5.7599999999999998E-010    -5.2913716860722980E-030
  -5.7199999999999999E-010    -1.8161068506682232E-029
  -5.6800000000000000E-010    -3.1697698752531742E-029
  -5.6400000000000002E-010    -4.2865037216793540E-029
  -5.6000000000000003E-010    -4.8147062595856412E-029
  -5.5600000000000004E-010    -4.4254419416582082E-029
  -5.5199999999999995E-010    -2.8987563556859017E-029
  -5.4799999999999997E-010    -2.0768563232967630E-030
  -5.4399999999999998E-010     3.4224697739101818E-029
  -5.4000000000000000E-010     7.5012831467250402E-029
  -5.3600000000000001E-010     1.1321076136012254E-028
  -5.3200000000000002E-010     1.4066212003493227E-028
  -5.2800000000000004E-010     1.4966903812727690E-028
  -5.2400000000000005E-010     1.3463635689773481E-028
  -5.1999999999999996E-010     9.3377239590616701E-029
  -5.1599999999999998E-010     2.7650571474988182E-029
  -5.1199999999999999E-010    -5.7326551418687931E-029
  -5.0800000000000000E-010    -1.5432493709393857E-028
  -5.0400000000000002E-010    -2.5603019640137967E-028
  -5.0000000000000003E-010    -3.5659424061374511E-028
  -4.9600000000000004E-010    -4.5177021830469543E-028
  -4.9199999999999996E-010    -5.3675847556330963E-028
  -4.8799999999999997E-010    -6.0151907551651387E-028
  -4.8399999999999998E-010    -6.2437963278763523E-028
  -4.8000000000000000E-010    -5.6610485200968044E-028
  -4.7600000000000001E-010    -3.6783228264632983E-028
  -4.7200000000000002E-010     4.3090105583200583E-029
  -4.6800000000000004E-010     7.3585628407999864E-028
  -4.6400000000000005E-010     1.7461486014111582E-027
  -4.5999999999999996E-010     3.0356924739250708E-027
  -4.5599999999999998E-010     4.4489555870753941E-027
  -4.5199999999999999E-010     5.6799583286951548E-027
  -4.4800000000000000E-010     6.2663240338960859E-027
  -4.4400000000000002E-010     5.6286690394803020E-027
  -4.4000000000000003E-010     3.1693109467693010E-027
  -4.3600000000000005E-010    -1.5661451547340024E-027
  -4.3199999999999996E-010    -8.6774529338814332E-027
  -4.2799999999999997E-010    -1.7682756141174942E-026
  -4.2399999999999998E-010    -2.7331587691871940E-026
  -4.2000000000000000E-010    -3.5529448990743703E-026
  -4.1600000000000001E-010    -3.9449370825464623E-026
  -4.1200000000000002E-010    -3.5891036650793936E-026
  -4.0800000000000004E-010    -2.1910515270013026E-026
  -4.0400000000000005E-010     4.3163267496540766E-027
  -3.9999999999999996E-010     4.2509765515802896E-026
  -3.9599999999999998E-010     8.9374182771607396E-026
  -3.9199999999999999E-010     1.3801475553744142E-025
  -3.8800000000000000E-010     1.7796618203670679E-025
  -3.8400000000000002E-010     1.9608466166462431E-025
  -3.8000000000000003E-010     1.7844871905211429E-025
  -3.7600000000000005E-010     1.1323350652739501E-025
  -3.7200000000000006E-010    -5.7189866912295958E-027
  -3.6799999999999997E-010    -1.7517858864585627E-025
  -3.6399999999999998E-010    -3.7943989024505522E-025
  -3.6000000000000000E-010    -5.8880351756052889E-025
  -3.5600000000000001E-010    -7.6054965880446808E-025
  -3.5200000000000003E-010    -8.4311024876431620E-025
  -3.4800000000000004E-010    -7.8369515430765406E-025
  -3.4400000000000005E-010    -5.3897058847327244E-025
  -3.3999999999999996E-010    -8.7598573691043133E-026
  -3.3599999999999998E-010     5.5734967980444252E-025
  -3.3199999999999999E-010     1.3387230972837196E-024
  -3.2800000000000000E-010     2.1512641820421469E-024
  -3.2400000000000002E-010     2.8459030667735741E-024
  -3.2000000000000003E-010     3.2442059903538020E-024
  -3.1600000000000005E-010     3.1633552679676052E-024
  -3.1200000000000006E-010     2.4500642276389819E-024
  -3.0799999999999997E-010     1.0196169679141110E-024
  -3.0399999999999998E-010    -1.1058892036979290E-024
  -3.0000000000000000E-010    -3.7675753643050539E-024
  -2.9600000000000001E-010    -6.6561200888757912E-024
  -2.9200000000000003E-010    -9.3216466273672438E-024
  -2.8800000000000004E-010    -1.1212037867940045E-023
  -2.8400000000000005E-010    -1.1740737027860934E-023
  -2.7999999999999996E-010    -1.0380052080364803E-023
  -2.7599999999999998E-010    -6.7704979384090800E-024
  -2.7199999999999999E-010    -8.3147826499380425E-025
  -2.6800000000000011E-010     7.1452698682344566E-024
  -2.6399999999999992E-010     1.6439647986759002E-023
  -2.5999999999999993E-010     2.5903364129999574E-023
  -2.5599999999999994E-010     3.4030273755608435E-023
  -2.5199999999999996E-010     3.9102733599232129E-023
  -2.4799999999999997E-010     3.9408974517740586E-023
  -2.4399999999999998E-010     3.3514422018095301E-023
  -2.4000000000000000E-010     2.0557645345124706E-023
  -2.3600000000000001E-010     5.3177446598250243E-025
  -2.3200000000000003E-010    -2.5493961730873806E-023
  -2.2800000000000004E-010    -5.5258664138114141E-023
  -2.2400000000000005E-010    -8.5340413784128897E-023
  -2.2000000000000007E-010    -1.1136112280407030E-022
  -2.1600000000000008E-010    -1.2837510633271051E-022
  -2.1200000000000010E-010    -1.3142796181259482E-022
  -2.0800000000000011E-010    -1.1624711591516749E-022
  -2.0399999999999992E-010    -8.0000776683737763E-023
  -1.9999999999999993E-010    -2.2040613627717174E-023
  -1.9599999999999994E-010     5.5470844954467929E-023
  -1.9199999999999996E-010     1.4715296918634540E-022
  -1.8799999999999997E-010     2.4431889175885222E-022
  -1.8399999999999998E-010     3.3528749348000766E-022
  -1.8000000000000000E-010     4.0614679954950819E-022
  -1.7600000000000001E-010     4.4197744893415050E-022
  -1.7200000000000003E-010     4.2849469435707413E-022
  -1.6800000000000004E-010     3.5401026955141589E-022
  -1.6400000000000005E-010     2.1155711348902533E-022
  -1.6000000000000007E-010     9.6596218833068848E-025
  -1.5600000000000008E-010    -2.6936115284610704E-022
  -1.5200000000000010E-010    -5.8126138142610607E-022
  -1.4800000000000011E-010    -9.0648921511209932E-022
  -1.4399999999999992E-010    -1.2075170358466227E-021
  -1.3999999999999993E-010    -1.4396494096122158E-021
  -1.3599999999999994E-010    -1.5545421158446390E-021
  -1.3199999999999996E-010    -1.5050788870506336E-021
  -1.2799999999999997E-010    -1.2513922501480125E-021
  -1.2399999999999999E-010    -7.6762611570146292E-022
  -1.2000000000000000E-010    -4.8848529319355416E-023
  -1.1600000000000001E-010     8.8265341377923682E-022
  -1.1200000000000003E-010     1.9725963845913863E-021
  -1.0800000000000004E-010     3.1324081936509937E-021
  -1.0400000000000005E-010     4.2403570882626817E-021
  -1.0000000000000007E-010     5.1468981897778191E-021
  -9.6000000000000082E-011     5.6847579012329366E-021
  -9.2000000000000096E-011     5.6838723965686627E-021
  -8.8000000000000110E-011     4.9907609250319788E-021
  -8.3999999999999917E-011     3.4912948063501802E-021
  -7.9999999999999931E-011     1.1351350368359421E-021
  -7.5999999999999944E-011    -2.0405415796452448E-021
  -7.1999999999999958E-011    -5.8909854514398706E-021
  -6.7999999999999972E-011    -1.0150831312958815E-020
  -6.3999999999999986E-011    -1.4431512152115909E-020
  -6.0000000000000000E-011    -1.8232318924206440E-020
  -5.6000000000000013E-011    -2.0967577039200677E-020
  -5.2000000000000027E-011    -2.2011229779759621E-020
  -4.8000000000000041E-011    -2.0758453684625837E-020
  -4.4000000000000055E-011    -1.6701840624572678E-020
  -4.0000000000000069E-011    -9.5173373478364536E-021
  -3.6000000000000082E-011     8.4733364638114349E-022
  -3.2000000000000096E-011     1.4091304689413773E-020
  -2.8000000000000110E-011     2.9497540957592173E-020
  -2.3999999999999917E-011     4.5900405127014319E-020
  -1.9999999999999931E-011     6.1695776261101902E-020
  -1.5999999999999945E-011     7.4904000484348515E-020
  -1.1999999999999959E-011     8.3292599156391157E-020
  -7.9999999999999724E-012     8.4560681211423546E-020
  -3.9999999999999862E-012     7.6580330281859551E-020
   0.0000000000000000          5.7682781631281461E-020
   3.9999999999999862E-012     2.6968691173640524E-020
   7.9999999999999724E-012    -1.5385870314204288E-020
   1.1999999999999959E-011    -6.7863095100527824E-020
   1.5999999999999945E-011    -1.2741633010491274E-019
   1.9999999999999931E-011    -1.8940305822383064E-019
   2.3999999999999917E-011    -2.4767532028202082E-019
   2.7999999999999903E-011    -2.9485728900984087E-019
   3.1999999999999889E-011    -3.2282609936773181E-019
   3.6000000000000082E-011    -3.2339409049374357E-019
   4.0000000000000069E-011    -2.8916879727030932E-019
   4.4000000000000055E-011    -2.1454215245954865E-019
   4.8000000000000041E-011    -9.6735950395922199E-020
   5.2000000000000027E-011     6.3193134387786398E-020
   5.6000000000000013E-011     2.5950238135190381E-019
   6.0000000000000000E-011     4.8118984813200532E-019
   6.3999999999999986E-011     7.1182312705259750E-019
   6.7999999999999972E-011     9.2988007691109529E-019
   7.1999999999999958E-011     1.1096856388319611E-018
   7.5999999999999944E-011     1.2229870535023687E-018
   7.9999999999999931E-011     1.2411573395508470E-018
   8.3999999999999917E-011     1.1379517955926548E-018
   8.7999999999999903E-011     8.9267430883446189E-019
   9.1999999999999889E-011     4.9353891485213493E-019
   9.6000000000000082E-011    -5.9050405784297746E-020
   1.0000000000000007E-010    -7.4963227044654232E-019
   1.0400000000000005E-010    -1.5455906943731489E-018
   1.0800000000000004E-010    -2.3961930614950764E-018
   1.1200000000000003E-010    -3.2330997788390605E-018
   1.1600000000000001E-010    -3.9726190738151184E-018
   1.2000000000000000E-010    -4.5198825713531832E-018
   1.2399999999999999E-010    -4.7749802491009655E-018
   1.2799999999999997E-010    -4.6409386284008783E-018
   1.3199999999999996E-010    -4.0332337071621484E-018
   1.3599999999999994E-010    -2.8903421501319509E-018
   1.3999999999999993E-010    -1.1846422944904150E-018
   1.4399999999999992E-010     1.0671916048520530E-018
   1.4799999999999990E-010     3.7953011787136536E-018
   1.5199999999999989E-010     6.8703351545631036E-018
   1.5600000000000008E-010     1.0100811462901265E-017
   1.6000000000000007E-010     1.3235174339890664E-017
   1.6400000000000005E-010     1.5969410229354250E-017
   1.6800000000000004E-010     1.7960825068292483E-017
   1.7200000000000003E-010     1.8848231962032668E-017
   1.7600000000000001E-010     1.8278333117099884E-017
   1.8000000000000000E-010     1.5937555146401419E-017
   1.8399999999999998E-010     1.1588006914619567E-017
   1.8799999999999997E-010     5.1055995968765945E-018
   1.9199999999999996E-010    -3.4822484623979065E-018
   1.9599999999999994E-010    -1.3962456822581932E-017
   1.9999999999999993E-010    -2.5909223672690525E-017
   2.0399999999999992E-010    -3.8667949146268037E-017
   2.0799999999999990E-010    -5.1354005191056409E-017
   2.1199999999999989E-010    -6.2870012065542594E-017
   2.1600000000000008E-010    -7.1944638347225736E-017
   2.2000000000000007E-010    -7.7194990704287452E-017
   2.2400000000000005E-010    -7.7213294351729170E-017
   2.2800000000000004E-010    -7.0676667178772899E-017
   2.3200000000000003E-010    -5.6476832868484113E-017
   2.3600000000000001E-010    -3.3864036436075362E-017
   2.4000000000000000E-010    -2.5969813115123994E-018
   2.4399999999999998E-010     3.6911889300918575E-017
   2.4799999999999997E-010     8.3468777334117948E-017
   2.5199999999999996E-010     1.3500322563079594E-016
   2.5599999999999994E-010     1.8852077939481913E-016
   2.5999999999999993E-010     2.4011920230349513E-016
   2.6399999999999992E-010     2.8508229415235636E-016
   2.6799999999999990E-010     3.1806253751533592E-016
   2.7199999999999989E-010     3.3335923915096414E-016
   2.7600000000000008E-010     3.2529244075735978E-016
   2.8000000000000007E-010     2.8866530400048052E-016
   2.8400000000000005E-010     2.1929884812901806E-016
   2.8800000000000004E-010     1.1461272612933485E-016
   2.9200000000000003E-010    -2.5783477267466447E-017
   2.9600000000000001E-010    -1.9953341809400332E-016
   3.0000000000000000E-010    -4.0106411794854503E-016
   3.0399999999999998E-010    -6.2126059868556175E-016
   3.0799999999999997E-010    -8.4734322919638384E-016
   3.1199999999999996E-010    -1.0630039888998418E-015
   3.1599999999999994E-010    -1.2488490584291008E-015
   3.1999999999999993E-010    -1.3831810980655051E-015
   3.2399999999999992E-010    -1.4431355815107113E-015
   3.2799999999999990E-010    -1.4061611715420530E-015
   3.3199999999999989E-010    -1.2518044403558728E-015
   3.3600000000000008E-010    -9.6372855424452709E-016
   3.4000000000000007E-010    -5.3186215893101926E-016
   3.4400000000000005E-010     4.5456683471706398E-017
   3.4800000000000004E-010     7.5950206355737835E-016
   3.5200000000000003E-010     1.5895297914253321E-015
   3.5600000000000001E-010     2.5016861247284730E-015
   3.6000000000000000E-010     3.4486438621382620E-015
   3.6399999999999998E-010     4.3701398939518796E-015
   3.6799999999999997E-010     5.1945531536305014E-015
   3.7199999999999996E-010     5.8416142238314240E-015
   3.7599999999999994E-010     6.2262727142659590E-015
   3.7999999999999993E-010     6.2636754779519862E-015
   3.8399999999999991E-010     5.8751170665709554E-015
   3.8799999999999990E-010     4.9947384092526544E-015
   3.9199999999999989E-010     3.5766513812972447E-015
   3.9599999999999987E-010     1.6020885542020871E-015
   4.0000000000000007E-010    -9.1389095738696311E-016
   4.0400000000000005E-010    -3.9166701567369800E-015
   4.0800000000000004E-010    -7.3078509755365694E-015
   4.1200000000000002E-010    -1.0943081205553968E-014
   4.1600000000000001E-010    -1.4632428314813358E-014
   4.2000000000000000E-010    -1.8143688044344507E-014
   4.2399999999999998E-010    -2.1208936142429405E-014
   4.2799999999999997E-010    -2.3534453139508134E-014
   4.3199999999999996E-010    -2.4813971576678538E-014
   4.3599999999999994E-010    -2.4745007635895877E-014
   4.3999999999999993E-010    -2.3047820902961287E-014
   4.4399999999999991E-010    -1.9486338699456415E-014
   4.4799999999999990E-010    -1.3890208269143133E-014
   4.5199999999999989E-010    -6.1769476686491553E-015
   4.5599999999999987E-010     3.6269143551467128E-015
   4.6000000000000007E-010     1.5366915952357429E-014
   4.6400000000000005E-010     2.8745111701669908E-014
   4.6800000000000004E-010     4.3309065674027558E-014
   4.7200000000000002E-010     5.8446317757164708E-014
   4.7600000000000001E-010     7.3385085395396029E-014
   4.8000000000000000E-010     8.7201729763794510E-014
   4.8399999999999998E-010     9.8835053463677558E-014
   4.8799999999999997E-010     1.0710732065676918E-013
   4.9199999999999996E-010     1.1075123984981085E-013
   4.9599999999999994E-010     1.0844206225495291E-013
   4.9999999999999993E-010     9.8833249310020628E-014
   5.0399999999999991E-010     8.0594134669807205E-014
   5.0799999999999990E-010     5.2447491119063430E-014
   5.1199999999999989E-010     1.3205000547336882E-014
   5.1599999999999987E-010    -3.8201758762487332E-014
   5.2000000000000007E-010    -1.0269684529926017E-013
   5.2400000000000005E-010    -1.8104403235525644E-013
   5.2800000000000004E-010    -2.7384133608483315E-013
   5.3200000000000002E-010    -3.8152687347220165E-013
   5.3600000000000001E-010    -5.0439724709752237E-013
   5.4000000000000000E-010    -6.4263847285147965E-013
   5.4399999999999998E-010    -7.9636930842723022E-013
   5.4799999999999997E-010    -9.6569541225640863E-013
   5.5199999999999995E-010    -1.1507728725963052E-012
   5.5599999999999994E-010    -1.3518787146892160E-012
   5.5999999999999993E-010    -1.5694860591426405E-012
   5.6399999999999991E-010    -1.8043392525894731E-012
   5.6799999999999990E-010    -2.0575275473059263E-012
   5.7199999999999989E-010    -2.3305518332479971E-012
   5.7599999999999987E-010    -2.6253825671711040E-012
   5.8000000000000007E-010    -2.9445043741936273E-012
   5.8400000000000005E-010    -3.2909464826852723E-012
   5.8800000000000004E-010    -3.6682960144047564E-012
   5.9200000000000002E-010    -4.0806933812439801E-012
   5.9600000000000001E-010    -4.5328099428991128E-012
   6.0000000000000000E-010    -5.0298082126057448E-012
   6.0399999999999998E-010    -5.5772888663881222E-012
   6.0799999999999997E-010    -6.1812244218558476E-012
   6.1199999999999995E-010    -6.8478845302773221E-012
   6.1599999999999994E-010    -7.5837613617909487E-012
   6.1999999999999993E-010    -8.3954913482278122E-012
   6.2399999999999991E-010    -9.2897895675302068E-012
   6.2799999999999990E-010    -1.0273391000943092E-011
   6.3199999999999989E-010    -1.1353011541716872E-011
   6.3599999999999987E-010    -1.2535330843459781E-011
   6.4000000000000006E-010    -1.3826993729703809E-011
   6.4400000000000005E-010    -1.5234646450232025E-011
   6.4800000000000004E-010    -1.6764993069719573E-011
   6.5200000000000002E-010    -1.8424883760752271E-011
   6.5600000000000001E-010    -2.0221421797489050E-011
   6.6000000000000000E-010    -2.2162101598217525E-011
   6.6399999999999978E-010    -2.4254951021574074E-011
   6.6800000000000017E-010    -2.6508712212019264E-011
   6.7200000000000016E-010    -2.8932998897581498E-011
   6.7600000000000015E-010    -3.1538478267059890E-011
   6.8000000000000013E-010    -3.4337036610422782E-011
   6.8400000000000012E-010    -3.7341950692341382E-011
   6.8800000000000011E-010    -4.0568019942666615E-011
   6.9200000000000009E-010    -4.4031710453740801E-011
   6.9600000000000008E-010    -4.7751262580453194E-011
   7.0000000000000006E-010    -5.1746761282593551E-011
   7.0400000000000005E-010    -5.6040219942442258E-011
   7.0800000000000004E-010    -6.0655613439199528E-011
   7.1200000000000002E-010    -6.5618895066184793E-011
   7.1600000000000001E-010    -7.0958005010747892E-011
   7.2000000000000000E-010    -7.6702851320463303E-011
   7.2399999999999998E-010    -8.2885272088402261E-011
   7.2799999999999997E-010    -8.9539030340950424E-011
   7.3199999999999995E-010    -9.6699748565395186E-011
   7.3599999999999994E-010    -1.0440489114809695E-010
   7.3999999999999993E-010    -1.1269372444247608E-010
   7.4399999999999991E-010    -1.2160732002339040E-010
   7.4799999999999990E-010    -1.3118852053553827E-010
   7.5199999999999988E-010    -1.4148199859244753E-010
   7.5599999999999987E-010    -1.5253428509182493E-010
   7.5999999999999986E-010    -1.6439379874504026E-010
   7.6399999999999984E-010    -1.7711107195884176E-010
   7.6799999999999983E-010    -1.9073880160971243E-010
   7.7199999999999982E-010    -2.0533211603151745E-010
   7.7599999999999980E-010    -2.2094875961936830E-010
   7.7999999999999979E-010    -2.3764944318972160E-010
   7.8399999999999977E-010    -2.5549817764521553E-010
   7.8800000000000017E-010    -2.7456266948182344E-010
   7.9200000000000016E-010    -2.9491474646866782E-010
   7.9600000000000015E-010    -3.1663080097200129E-010
   8.0000000000000013E-010    -3.3979238639160182E-010
   8.0400000000000012E-010    -3.6448653872778768E-010
   8.0800000000000010E-010    -3.9080644520630060E-010
   8.1200000000000009E-010    -4.1885183022335504E-010
   8.1600000000000008E-010    -4.4872937660651417E-010
   8.2000000000000006E-010    -4.8055315956449445E-010
   8.2400000000000005E-010    -5.1444482638491026E-010
   8.2800000000000004E-010    -5.5053395561449552E-010
   8.3200000000000002E-010    -5.8895805992228746E-010
   8.3600000000000001E-010    -6.2986272058849336E-010
   8.3999999999999999E-010    -6.7340135592528228E-010
   8.4399999999999998E-010    -7.1973526376723044E-010
   8.4799999999999997E-010    -7.6903333237897457E-010
   8.5199999999999995E-010    -8.2147165338510717E-010
   8.5599999999999994E-010    -8.7723370572942952E-010
   8.5999999999999993E-010    -9.3650964723934819E-010
   8.6399999999999991E-010    -9.9949658466935781E-010
   8.6799999999999990E-010    -1.0663982749878479E-009
   8.7199999999999988E-010    -1.1374255015707243E-009
   8.7599999999999987E-010    -1.2127961234072741E-009
   8.7999999999999986E-010    -1.2927356128080217E-009
   8.8399999999999984E-010    -1.3774778130125616E-009
   8.8799999999999983E-010    -1.4672652601353412E-009
   8.9199999999999981E-010    -1.5623509251890322E-009
   8.9599999999999980E-010    -1.6629986004171982E-009
   8.9999999999999979E-010    -1.7694845467494339E-009
   9.0399999999999977E-010    -1.8820984151851574E-009
   9.0799999999999976E-010    -2.0011445151303632E-009
   9.1200000000000016E-010    -2.1269430676046226E-009
   9.1600000000000015E-010    -2.2598311222028027E-009
   9.2000000000000013E-010    -2.4001634930938757E-009
   9.2400000000000012E-010    -2.5483130309069555E-009
   9.2800000000000010E-010    -2.7046714436071425E-009
   9.3200000000000009E-010    -2.8696488868585766E-009
   9.3600000000000008E-010    -3.0436744475140620E-009
   9.4000000000000006E-010    -3.2271957841617959E-009
   9.4400000000000005E-010    -3.4206781376261751E-009
   9.4800000000000004E-010    -3.6246041147518362E-009
   9.5200000000000002E-010    -3.8394736039254775E-009
   9.5600000000000001E-010    -4.0658021948390759E-009
   9.5999999999999999E-010    -4.3041209073491413E-009
   9.6399999999999998E-010    -4.5549758929060352E-009
   9.6799999999999997E-010    -4.8189292715227579E-009
   9.7199999999999995E-010    -5.0965570302896619E-009
   9.7599999999999994E-010    -5.3884509609467434E-009