  -4.0000000000000001E-002     0.0000000000000000     
  -3.9899999999999998E-002     0.0000000000000000     
  -3.9800000000000002E-002     0.0000000000000000     
  -3.9699999999999999E-002     0.0000000000000000     
  -3.9600000000000003E-002     0.0000000000000000     
  -3.9500000000000000E-002     0.0000000000000000     
  -3.9399999999999998E-002     0.0000000000000000     
  -3.9300000000000002E-002     0.0000000000000000     
  -3.9199999999999999E-002     0.0000000000000000     
  -3.9100000000000003E-002     0.0000000000000000     
  -3.9000000000000000E-002     0.0000000000000000     
  -3.8900000000000004E-002     0.0000000000000000     
  -3.8800000000000001E-002     0.0000000000000000     
  -3.8699999999999998E-002     0.0000000000000000     
  -3.8600000000000002E-002     0.0000000000000000     
  -3.8500000000000000E-002     0.0000000000000000     
  -3.8400000000000004E-002     0.0000000000000000     
  -3.8300000000000001E-002     0.0000000000000000     
  -3.8199999999999998E-002     0.0000000000000000     
  -3.8100000000000002E-002     0.0000000000000000     
  -3.7999999999999999E-002     0.0000000000000000     
  -3.7900000000000003E-002     0.0000000000000000     
  -3.7800000000000000E-002     0.0000000000000000     
  -3.7699999999999997E-002     0.0000000000000000     
  -3.7600000000000001E-002     0.0000000000000000     
  -3.7499999999999999E-002     0.0000000000000000     
  -3.7400000000000003E-002     0.0000000000000000     
  -3.7300000000000000E-002     0.0000000000000000     
  -3.7200000000000004E-002     0.0000000000000000     
  -3.7100000000000001E-002     0.0000000000000000     
  -3.6999999999999998E-002     0.0000000000000000     
  -3.6900000000000002E-002     0.0000000000000000     
  -3.6799999999999999E-002     0.0000000000000000     
  -3.6700000000000003E-002     0.0000000000000000     
  -3.6600000000000001E-002     0.0000000000000000     
  -3.6499999999999998E-002     0.0000000000000000     
  -3.6400000000000002E-002     0.0000000000000000     
  -3.6299999999999999E-002     0.0000000000000000     
  -3.6200000000000003E-002     0.0000000000000000     
  -3.6100000000000000E-002     0.0000000000000000     
  -3.6000000000000004E-002     0.0000000000000000     
  -3.5900000000000001E-002     0.0000000000000000     
  -3.5799999999999998E-002     0.0000000000000000     
  -3.5700000000000003E-002     0.0000000000000000     
  -3.5600000000000000E-002     0.0000000000000000     
  -3.5500000000000004E-002     0.0000000000000000     
  -3.5400000000000001E-002     0.0000000000000000     
  -3.5299999999999998E-002     0.0000000000000000     
  -3.5200000000000002E-002     0.0000000000000000     
  -3.5099999999999999E-002     0.0000000000000000     
  -3.5000000000000003E-002     0.0000000000000000     
  -3.4900000000000000E-002     0.0000000000000000     
  -3.4799999999999998E-002     0.0000000000000000     
  -3.4700000000000002E-002     0.0000000000000000     
  -3.4599999999999999E-002     0.0000000000000000     
  -3.4500000000000003E-002     0.0000000000000000     
  -3.4400000000000000E-002     0.0000000000000000     
  -3.4299999999999997E-002     0.0000000000000000     
  -3.4200000000000001E-002     0.0000000000000000     
  -3.4099999999999998E-002     0.0000000000000000     
  -3.4000000000000002E-002     0.0000000000000000     
  -3.3900000000000000E-002     0.0000000000000000     
  -3.3799999999999997E-002     0.0000000000000000     
  -3.3700000000000001E-002     0.0000000000000000     
  -3.3599999999999998E-002     0.0000000000000000     
  -3.3500000000000002E-002     0.0000000000000000     
  -3.3399999999999999E-002     0.0000000000000000     
  -3.3300000000000003E-002     0.0000000000000000     
  -3.3200000000000000E-002     0.0000000000000000     
  -3.3099999999999997E-002     0.0000000000000000     
  -3.3000000000000002E-002     0.0000000000000000     
  -3.2899999999999999E-002     0.0000000000000000     
  -3.2800000000000003E-002     0.0000000000000000     
  -3.2700000000000000E-002     0.0000000000000000     
  -3.2600000000000004E-002     0.0000000000000000     
  -3.2500000000000001E-002     0.0000000000000000     
  -3.2399999999999998E-002     0.0000000000000000     
  -3.2300000000000002E-002     0.0000000000000000     
  -3.2199999999999999E-002     0.0000000000000000     
  -3.2100000000000004E-002     0.0000000000000000     
  -3.2000000000000001E-002     0.0000000000000000     
  -3.1899999999999998E-002     0.0000000000000000     
  -3.1800000000000002E-002     0.0000000000000000     
  -3.1699999999999999E-002     0.0000000000000000     
  -3.1600000000000003E-002     0.0000000000000000     
  -3.1500000000000000E-002    -1.0789998175301091E-043
  -3.1399999999999997E-002    -2.9707527443686122E-043
  -3.1300000000000001E-002    -4.5822459783421518E-043
  -3.1199999999999999E-002    -7.8612843848622238E-043
  -3.1100000000000003E-002    -9.0804140488248146E-043
  -3.1000000000000000E-002    -1.0229478789571165E-043
  -3.0900000000000000E-002     1.1672816207825726E-042
  -3.0800000000000001E-002     2.4915086695695248E-042
  -3.0699999999999998E-002     4.4042810733729001E-042
  -3.0600000000000002E-002     3.3743267020941595E-042
  -3.0499999999999999E-002    -6.6715819886504541E-042
  -3.0400000000000000E-002    -2.3900546607524080E-041
  -3.0300000000000001E-002    -2.9832243007011031E-041
  -3.0200000000000001E-002    -2.6792826637890502E-042
  -3.0100000000000002E-002     7.5466928796213023E-041
  -2.9999999999999999E-002     2.0354841103242995E-040
  -2.9899999999999999E-002     3.1260866791390182E-040
  -2.9800000000000000E-002     2.3116379986887912E-040
  -2.9700000000000001E-002    -2.6906331813500813E-040
  -2.9600000000000001E-002    -1.2824949792208948E-039
  -2.9499999999999998E-002    -2.4324481431936267E-039
  -2.9400000000000003E-002    -2.5581978647852071E-039
  -2.9300000000000000E-002     1.3429203703010452E-040
  -2.9200000000000000E-002     6.9221551735486962E-039
  -2.9100000000000001E-002     1.6272644277999762E-038
  -2.8999999999999998E-002     2.1334016622069997E-038
  -2.8900000000000002E-002     9.8395913139466778E-039
  -2.8799999999999999E-002    -2.9888519153338315E-038
  -2.8700000000000000E-002    -9.4935045046812846E-038
  -2.8600000000000000E-002    -1.5010143025267853E-037
  -2.8500000000000001E-002    -1.2101545154544061E-037
  -2.8400000000000002E-002     7.9446616434895504E-038
  -2.8299999999999999E-002     4.7471853096180573E-037
  -2.8200000000000003E-002     9.1305074421197439E-037
  -2.8100000000000000E-002     9.9322941017502089E-037
  -2.8000000000000001E-002     1.5460874599953631E-037
  -2.7900000000000001E-002    -1.9500281095030549E-036
  -2.7799999999999998E-002    -4.8233494908989552E-036
  -2.7700000000000002E-002    -6.5552564588573543E-036
  -2.7600000000000000E-002    -3.9727461666096011E-036
  -2.7500000000000000E-002     5.7602828450981103E-036
  -2.7400000000000001E-002     2.1927677646943387E-035
  -2.7299999999999998E-002     3.6669322424879374E-035
  -2.7200000000000002E-002     3.4083874831684192E-035
  -2.7099999999999999E-002    -3.9511418661384336E-036
  -2.7000000000000000E-002    -8.3078648695653177E-035
  -2.6900000000000000E-002    -1.7676497448433850E-034
  -2.6800000000000001E-002    -2.1460242720119200E-034
  -2.6700000000000002E-002    -9.8504371779681158E-035
  -2.6599999999999999E-002     2.3754596471283141E-034
  -2.6500000000000003E-002     7.3191531272575857E-034
  -2.6400000000000000E-002     1.1128579506677296E-033
  -2.6300000000000000E-002     9.1803353734335915E-034
  -2.6200000000000001E-002    -2.9434819354971638E-034
  -2.6099999999999998E-002    -2.5323863980886625E-033
  -2.6000000000000002E-002    -4.9144413950445551E-033
  -2.5899999999999999E-002    -5.5282966673294465E-033
  -2.5800000000000000E-002    -2.0453800068979504E-033
  -2.5700000000000001E-002     6.6929320217440285E-033
  -2.5599999999999998E-002     1.8528685623798151E-032
  -2.5500000000000002E-002     2.6572252573113326E-032
  -2.5399999999999999E-002     2.0423487008407674E-032
  -2.5300000000000000E-002    -8.4955937510322852E-033
  -2.5200000000000000E-002    -5.8098261684518428E-032
  -2.5100000000000001E-002    -1.0737255747515427E-031
  -2.5000000000000001E-002    -1.1606115343959616E-031
  -2.4899999999999999E-002    -3.9767188416037011E-032
  -2.4800000000000003E-002     1.3794464998213121E-031
  -2.4700000000000000E-002     3.6731412541585036E-031
  -2.4600000000000000E-002     5.1337040347020935E-031
  -2.4500000000000001E-002     3.8807723478272967E-031
  -2.4399999999999998E-002    -1.4778677030797852E-031
  -2.4299999999999999E-002    -1.0339217608702700E-030
  -2.4199999999999999E-002    -1.8879325126748717E-030
  -2.4100000000000000E-002    -2.0298848343219789E-030
  -2.4000000000000000E-002    -7.5653429335588454E-031
  -2.3900000000000001E-002     2.1417279496275759E-030
  -2.3800000000000002E-002     5.8203412240287053E-030
  -2.3699999999999999E-002     8.1678132227338123E-030
  -2.3599999999999999E-002     6.3770670094821008E-030
  -2.3500000000000000E-002    -1.5137811243674635E-030
  -2.3400000000000001E-002    -1.4510333863838467E-029
  -2.3300000000000001E-002    -2.7110900548494861E-029
  -2.3199999999999998E-002    -2.9886677173498345E-029
  -2.3099999999999999E-002    -1.3369582988286372E-029
  -2.3000000000000000E-002     2.5130152318432734E-029
  -2.2900000000000000E-002     7.4570472721249339E-029
  -2.2800000000000001E-002     1.0801144758858325E-028
  -2.2700000000000001E-002     9.0246350799408349E-029
  -2.2599999999999999E-002    -3.2275125212561252E-030
  -2.2499999999999999E-002    -1.6136724224901710E-028
  -2.2400000000000000E-002    -3.2032721651229598E-028
  -2.2300000000000000E-002    -3.7117097259801695E-028
  -2.2200000000000001E-002    -2.0426177063752836E-028
  -2.2100000000000002E-002     2.1569221300571521E-028
  -2.1999999999999999E-002     7.7532753994654853E-028
  -2.1899999999999999E-002     1.1907287214977579E-027
  -2.1800000000000000E-002     1.0874032540568632E-027
  -2.1700000000000001E-002     1.9385384058800315E-028
  -2.1600000000000001E-002    -1.4094864371959543E-027
  -2.1499999999999998E-002    -3.1187970259022469E-027
  -2.1399999999999999E-002    -3.8769736300632924E-027
  -2.1299999999999999E-002    -2.5891570467320240E-027
  -2.1200000000000000E-002     1.1795873130659750E-027
  -2.1100000000000001E-002     6.5142400216201206E-027
  -2.1000000000000001E-002     1.0927109436498995E-026
  -2.0899999999999998E-002     1.1028340166235876E-026
  -2.0799999999999999E-002     4.1806299969769725E-027
  -2.0700000000000000E-002    -9.3612798582775733E-027
  -2.0600000000000000E-002    -2.4930588432597363E-026
  -2.0500000000000001E-002    -3.3883360060742937E-026
  -2.0400000000000001E-002    -2.6819480433038099E-026
  -2.0299999999999999E-002     9.0298718038302453E-028
  -2.0199999999999999E-002     4.3593695462141253E-026
  -2.0100000000000000E-002     8.3094983926198025E-026
  -2.0000000000000000E-002     9.3305062711053851E-026
  -1.9900000000000001E-002     5.2103418462160210E-026
  -1.9799999999999998E-002    -4.2839387280866504E-026
  -1.9699999999999999E-002    -1.6217191715760447E-025
  -1.9599999999999999E-002    -2.4631624632511781E-025
  -1.9500000000000000E-002    -2.2625176641604768E-025
  -1.9400000000000001E-002    -6.0695432596842945E-026
  -1.9300000000000001E-002     2.2484882659991869E-025
  -1.9199999999999998E-002     5.2009929816725370E-025
  -1.9099999999999999E-002     6.5441903892968799E-025
  -1.9000000000000000E-002     4.6956368528743785E-025
  -1.8900000000000000E-002    -7.9847933832695187E-026
  -1.8800000000000001E-002    -8.4537805591466598E-025
  -1.8700000000000001E-002    -1.4811215524703452E-024
  -1.8599999999999998E-002    -1.5556936585246321E-024
  -1.8499999999999999E-002    -7.6660561066672320E-025
  -1.8400000000000000E-002     8.2343238926567661E-025
  -1.8300000000000000E-002     2.6581999404199553E-024
  -1.8200000000000001E-002     3.7916244422040583E-024
  -1.8100000000000002E-002     3.2650507160686229E-024
  -1.7999999999999999E-002     6.5665974902716169E-025
  -1.7899999999999999E-002    -3.4435470619538864E-024
  -1.7800000000000000E-002    -7.3417170301693576E-024
  -1.7700000000000000E-002    -8.7464424329573186E-024
  -1.7600000000000001E-002    -5.8303068674202123E-024
  -1.7499999999999998E-002     1.5368609849190646E-024
  -1.7399999999999999E-002     1.1023148647966714E-023
  -1.7299999999999999E-002     1.8166805581801327E-023
  -1.7200000000000000E-002     1.8053720793316084E-023
  -1.7100000000000001E-002     7.9130250860876136E-024
  -1.7000000000000001E-002    -1.0490232874583754E-023
  -1.6899999999999998E-002    -3.0104718124323231E-023
  -1.6799999999999999E-002    -4.0538315519077547E-023
  -1.6700000000000000E-002    -3.2616773101796263E-023
  -1.6600000000000000E-002    -3.9562257921047590E-024
  -1.6500000000000001E-002     3.7218236627273875E-023
  -1.6400000000000001E-002     7.2798999963700666E-023
  -1.6299999999999999E-002     8.1303734626437362E-023
  -1.6199999999999999E-002     4.8584236057563219E-023
  -1.6100000000000000E-002    -2.1771732680149444E-023
  -1.6000000000000000E-002    -1.0426836541252210E-022
  -1.5900000000000001E-002    -1.5804960764735049E-022
  -1.5799999999999998E-002    -1.4419869952105858E-022
  -1.5699999999999999E-002    -4.7815257602597397E-023
  -1.5599999999999999E-002     1.0579505107783995E-022
  -1.5500000000000000E-002     2.5177044837318626E-022
  -1.5400000000000000E-002     3.0838402942389464E-022
  -1.5300000000000001E-002     2.1641635317382205E-022
  -1.5199999999999998E-002    -2.1172375097024244E-023
  -1.5099999999999999E-002    -3.2110930245819583E-022
  -1.4999999999999999E-002    -5.4009335370230158E-022
  -1.4900000000000000E-002    -5.3443849581108976E-022
  -1.4800000000000001E-002    -2.3851811528000157E-022
  -1.4700000000000001E-002     2.7536503823463153E-022
  -1.4599999999999998E-002     7.9436642227653442E-022
  -1.4499999999999999E-002     1.0387009541611371E-021
  -1.4400000000000000E-002     7.9415271039097919E-022
  -1.4300000000000000E-002     4.8492743969775686E-023
  -1.4200000000000001E-002    -9.4186518571050940E-022
  -1.4099999999999998E-002    -1.7122353932615324E-021
  -1.3999999999999999E-002    -1.7814812753556963E-021
  -1.3899999999999999E-002    -9.0886964577823670E-022
  -1.3800000000000000E-002     7.0548479513123540E-022
  -1.3700000000000000E-002     2.4023144543549470E-021
  -1.3600000000000001E-002     3.2893049103982469E-021
  -1.3499999999999998E-002     2.6581457062327214E-021
  -1.3399999999999999E-002     4.1972421099647379E-022
  -1.3299999999999999E-002    -2.6738631476131876E-021
  -1.3200000000000000E-002    -5.2004538149653410E-021
  -1.3100000000000001E-002    -5.6483571724818170E-021
  -1.3000000000000001E-002    -3.2048553436321947E-021
  -1.2899999999999998E-002     1.6164935792489418E-021
  -1.2799999999999999E-002     6.8917950217726318E-021
  -1.2699999999999999E-002     9.9373302499379632E-021
  -1.2600000000000000E-002     8.5407739183421238E-021
  -1.2500000000000001E-002     2.2657028296936869E-021
  -1.2399999999999998E-002    -6.8506581343758906E-021
  -1.2299999999999998E-002    -1.4737725108666708E-020
  -1.2199999999999999E-002    -1.6928026669286100E-020
  -1.2100000000000000E-002    -1.0822318185728803E-020
  -1.2000000000000000E-002     2.4643939958199466E-021
  -1.1900000000000001E-002     1.7763454854157650E-020
  -1.1799999999999998E-002     2.7574983372947229E-020
  -1.1699999999999999E-002     2.5446187214515129E-020
  -1.1599999999999999E-002     9.6190797794002884E-021
  -1.1500000000000000E-002    -1.4918929361604106E-020
  -1.1400000000000000E-002    -3.7449794439771382E-020
  -1.1300000000000001E-002    -4.5797675332262395E-020
  -1.1199999999999998E-002    -3.2371406310707298E-020
  -1.1099999999999999E-002     7.9894620790433656E-022
  -1.0999999999999999E-002     4.0921710577552255E-020
  -1.0900000000000000E-002     6.8697705301698405E-020
  -1.0800000000000001E-002     6.6959495104343322E-020
  -1.0699999999999998E-002     3.0139243271861614E-020
  -1.0599999999999998E-002    -3.0235041126552912E-020
  -1.0499999999999999E-002    -8.7799160339577523E-020
  -1.0400000000000000E-002    -1.1190658966000539E-019
  -1.0300000000000000E-002    -8.2758929147441716E-020
  -1.0200000000000001E-002    -4.1585830788475066E-021
  -1.0099999999999998E-002     9.3349671496779050E-020
  -9.9999999999999985E-003     1.6270315654082154E-019
  -9.8999999999999991E-003     1.6144601003080287E-019
  -9.7999999999999997E-003     7.5013739804075081E-020
  -9.7000000000000003E-003    -6.9592572552812998E-020
  -9.6000000000000009E-003    -2.0899780586251492E-019
  -9.4999999999999980E-003    -2.6884189333767710E-019
  -9.3999999999999986E-003    -2.0038019946684626E-019
  -9.2999999999999992E-003    -1.1513619034592224E-020
  -9.1999999999999998E-003     2.2517583013222118E-019
  -9.1000000000000004E-003     3.9645750878476825E-019
  -9.0000000000000011E-003     3.9877700077054936E-019
  -8.8999999999999982E-003     1.9416954648203914E-019
  -8.7999999999999988E-003    -1.5615701719413881E-019
  -8.6999999999999994E-003    -5.0264327855426568E-019
  -8.5999999999999965E-003    -6.6614819282850132E-019
  -8.5000000000000006E-003    -5.2407857845402342E-019
  -8.3999999999999977E-003    -8.4966027967492189E-020
  -8.3000000000000018E-003     4.8925494674978865E-019
  -8.1999999999999990E-003     9.3514474309133169E-019
  -8.0999999999999961E-003     1.0018319406777802E-018
  -8.0000000000000002E-003     5.8096358238414199E-019
  -7.8999999999999973E-003    -2.1084999250099186E-019
  -7.8000000000000014E-003    -1.0482478365826980E-018
  -7.6999999999999985E-003    -1.5223176601411796E-018
  -7.6000000000000026E-003    -1.3313323066530721E-018
  -7.4999999999999997E-003    -4.5207173064945809E-019
  -7.3999999999999969E-003     7.9885820687315343E-019
  -7.3000000000000009E-003     1.8645951748458483E-018
  -7.1999999999999981E-003     2.1864641792848791E-018
  -7.1000000000000021E-003     1.4845946052935816E-018
  -6.9999999999999993E-003    -5.4487052570767097E-020
  -6.8999999999999964E-003    -1.7946204513123844E-018
  -6.8000000000000005E-003    -2.8974757534061127E-018
  -6.6999999999999976E-003    -2.7138346263841339E-018
  -6.6000000000000017E-003    -1.1434805201204686E-018
  -6.4999999999999988E-003     1.2253001598329622E-018
  -6.3999999999999960E-003     3.3048880544826211E-018
  -6.3000000000000000E-003     3.9844140325627894E-018
  -6.1999999999999972E-003     2.6967492108318511E-018
  -6.1000000000000013E-003    -1.9953785818462879E-019
  -5.9999999999999984E-003    -3.4510365998551746E-018
  -5.9000000000000025E-003    -5.4075294728041329E-018
  -5.7999999999999996E-003    -4.8105681139756388E-018
  -5.6999999999999967E-003    -1.5162023138725750E-018
  -5.6000000000000008E-003     3.2320229550937438E-018
  -5.4999999999999979E-003     7.1988420288469177E-018
  -5.4000000000000020E-003     8.1354238948549838E-018
  -5.2999999999999992E-003     4.9400450408973391E-018
  -5.1999999999999963E-003    -1.5611647500436605E-018
  -5.1000000000000004E-003    -8.6789841276982795E-018
  -4.9999999999999975E-003    -1.2886499524814584E-017
  -4.9000000000000016E-003    -1.1452246924805826E-017
  -4.7999999999999987E-003    -3.9608679228361612E-018
  -4.6999999999999958E-003     7.0627534472890811E-018
  -4.5999999999999999E-003     1.6888642519446222E-017
  -4.4999999999999971E-003     2.0532975305228248E-017
  -4.4000000000000011E-003     1.5152001638809517E-017
  -4.2999999999999983E-003     1.7642302491974924E-018
  -4.2000000000000023E-003    -1.4649388500648821E-017
  -4.0999999999999995E-003    -2.6954350276336575E-017
  -3.9999999999999966E-003    -2.8964159282462792E-017
  -3.9000000000000007E-003    -1.8493045344276525E-017
  -3.7999999999999978E-003     1.1385693420285882E-018
  -3.7000000000000019E-003     2.2073668679279716E-017
  -3.5999999999999990E-003     3.5179577861573990E-017
  -3.4999999999999962E-003     3.4251974213934575E-017
  -3.4000000000000002E-003     1.9180209094542702E-017
  -3.2999999999999974E-003    -3.6149103849838206E-018
  -3.2000000000000015E-003    -2.3964563854906535E-017
  -3.0999999999999986E-003    -3.2846680379990687E-017
  -2.9999999999999957E-003    -2.7047543752869249E-017
  -2.8999999999999998E-003    -1.1080963598138950E-017
  -2.7999999999999969E-003     4.9934201106932421E-018
  -2.7000000000000010E-003     1.1154959039834881E-017
  -2.5999999999999981E-003     3.7089405547060923E-018
  -2.5000000000000022E-003    -1.1282848607161092E-017
  -2.3999999999999994E-003    -2.0024929244804304E-017
  -2.2999999999999965E-003    -8.4595025055052968E-018
  -2.2000000000000006E-003     2.7966963275528065E-017
  -2.0999999999999977E-003     7.7485535075974028E-017
  -2.0000000000000018E-003     1.1304145695520250E-016
  -1.8999999999999989E-003     1.0296107005116178E-016
  -1.7999999999999960E-003     2.8133365544994132E-017
  -1.7000000000000001E-003    -1.0187345327710765E-016
  -1.5999999999999973E-003    -2.4292253770675132E-016
  -1.5000000000000013E-003    -3.2698775192510285E-016
  -1.3999999999999985E-003    -2.8890372124845101E-016
  -1.2999999999999956E-003    -1.0032881590589553E-016
  -1.1999999999999997E-003     2.0399314167896009E-016
  -1.0999999999999968E-003     5.2280038174837892E-016
  -1.0000000000000009E-003     7.1573691119925301E-016
  -8.9999999999999802E-004     6.5697336520877548E-016
  -8.0000000000000210E-004     2.9685799589787933E-016
  -6.9999999999999923E-004    -2.9474425164778583E-016
  -5.9999999999999637E-004    -9.2766582515169983E-016
  -5.0000000000000044E-004    -1.3438389466426288E-015
  -3.9999999999999758E-004    -1.3121792902939865E-015
  -3.0000000000000165E-004    -7.3413346096199155E-016
  -1.9999999999999879E-004     2.8342850027739922E-016
  -9.9999999999995925E-005     1.4262841574097973E-015
   0.0000000000000000          2.2577265103578166E-015
   1.0000000000000286E-004     2.3725032863590369E-015
   1.9999999999999879E-004     1.5696723299407286E-015
   3.0000000000000165E-004    -2.3287154218423584E-017
   4.0000000000000452E-004    -1.9354635082124982E-015
   5.0000000000000044E-004    -3.4735938135051344E-015
   6.0000000000000331E-004    -3.9560030056472184E-015
   6.9999999999999923E-004    -2.9865299635596513E-015
   8.0000000000000210E-004    -6.6649057446456559E-016
   8.9999999999999802E-004     2.3508956876328166E-015
   1.0000000000000009E-003     5.0140094136894627E-015
   1.1000000000000038E-003     6.2119545584640636E-015
   1.1999999999999997E-003     5.2003841906561946E-015
   1.3000000000000025E-003     1.9634293597572830E-015
   1.3999999999999985E-003    -2.6415436085383418E-015
   1.5000000000000013E-003    -7.0538100168282721E-015
   1.6000000000000042E-003    -9.4877896839496052E-015
   1.7000000000000001E-003    -8.5935871659286074E-015
   1.8000000000000030E-003    -4.0777601801667614E-015
   1.8999999999999989E-003     2.9663854024915759E-015
   2.0000000000000018E-003     1.0208119207788871E-014
   2.1000000000000046E-003     1.4750192779970812E-014
   2.2000000000000006E-003     1.4168646216407375E-014
   2.3000000000000034E-003     7.5909720539555844E-015
   2.3999999999999994E-003    -3.6065883623776634E-015
   2.5000000000000022E-003    -1.5846637966675930E-014
   2.5999999999999981E-003    -2.4295872930700513E-014
   2.7000000000000010E-003    -2.4539206861721834E-014
   2.8000000000000039E-003    -1.4482388067103315E-014
   2.8999999999999998E-003     4.2296204821152487E-015
   3.0000000000000027E-003     2.5970052185673477E-014
   3.0999999999999986E-003     4.2450370746783400E-014
   3.2000000000000015E-003     4.5452922973815077E-014
   3.3000000000000043E-003     3.0216246984984124E-014
   3.4000000000000002E-003    -1.7415528908722817E-015
   3.5000000000000031E-003    -4.1650290529861300E-014
   3.5999999999999990E-003    -7.5223376518659263E-014
   3.7000000000000019E-003    -8.7070778918060115E-014
   3.7999999999999978E-003    -6.6662387415705737E-014
   3.9000000000000007E-003    -1.3808009233619647E-014
   4.0000000000000036E-003     5.8680795953728465E-014
   4.0999999999999995E-003     1.2690643349556885E-013
   4.2000000000000023E-003     1.6271040775579088E-013
   4.2999999999999983E-003     1.4383882539908965E-013
   4.4000000000000011E-003     6.4167888938568979E-014
   4.5000000000000040E-003    -6.0074592056567205E-014
   4.5999999999999999E-003    -1.9148095923519209E-013
   4.7000000000000028E-003    -2.8123133704628656E-013
   4.7999999999999987E-003    -2.8550732199435214E-013
   4.9000000000000016E-003    -1.8354274263637782E-013
   5.0000000000000044E-003     9.4153971660795692E-015
   5.1000000000000004E-003     2.4036800111079670E-013
   5.2000000000000032E-003     4.3103221729692831E-013
   5.2999999999999992E-003     5.0253784423734404E-013
   5.4000000000000020E-003     4.0520218473963365E-013
   5.4999999999999979E-003     1.4286714985958099E-013
   5.6000000000000008E-003    -2.1859932212899696E-013
   5.7000000000000037E-003    -5.6482531325674490E-013
   5.7999999999999996E-003    -7.6726521186856744E-013
   5.9000000000000025E-003    -7.2886092777543765E-013
   5.9999999999999984E-003    -4.2552815654808840E-013
   6.1000000000000013E-003     7.3079183763452571E-014
   6.2000000000000041E-003     6.1486335771118728E-013
   6.3000000000000000E-003     1.0094916439232215E-012
   6.4000000000000029E-003     1.0938470181715010E-012
   6.4999999999999988E-003     7.9703111515241898E-013
   6.6000000000000017E-003     1.8002893826304239E-013
   6.7000000000000046E-003    -5.6890576234300272E-013
   6.8000000000000005E-003    -1.1878882209478969E-012
   6.9000000000000034E-003    -1.4306243906539451E-012
   6.9999999999999993E-003    -1.1620887628918664E-012
   7.1000000000000021E-003    -4.2481927806266306E-013
   7.1999999999999981E-003     5.5380212134886753E-013
   7.3000000000000009E-003     1.4243221402657213E-012
   7.4000000000000038E-003     1.8335506724032058E-012
   7.4999999999999997E-003     1.5604506619151803E-012
   7.6000000000000026E-003     6.1951745816690718E-013
   7.6999999999999985E-003    -7.1271591059463013E-013
   7.8000000000000014E-003    -1.9687040626187313E-012
   7.9000000000000042E-003    -2.6441427172785303E-012
   8.0000000000000002E-003    -2.3870280752014139E-012
   8.1000000000000030E-003    -1.1532182543974590E-012
   8.1999999999999990E-003     7.3578355864675760E-013
   8.3000000000000018E-003     2.6675744946302871E-012
   8.4000000000000047E-003     3.9340132713949760E-012
   8.5000000000000006E-003     3.9865272541406149E-012
   8.6000000000000035E-003     2.6605113511574130E-012
   8.6999999999999994E-003     2.7865302296495309E-013
   8.8000000000000023E-003    -2.4207059967640276E-012
   8.8999999999999982E-003    -4.5221469797962488E-012
   9.0000000000000011E-003    -5.2642330598817733E-012
   9.1000000000000039E-003    -4.3433186734664897E-012
   9.1999999999999998E-003    -2.0669130469663788E-012
   9.3000000000000027E-003     7.2146460897495879E-013
   9.3999999999999986E-003     2.9419108208555977E-012
   9.5000000000000015E-003     3.7071040681624368E-012
   9.6000000000000044E-003     2.7205846082900553E-012
   9.7000000000000003E-003     4.7527287010476482E-013
   9.8000000000000032E-003    -1.8587325689017886E-012
   9.8999999999999991E-003    -2.8567035889603964E-012
   1.0000000000000002E-002    -1.4444443904859661E-012
   1.0100000000000005E-002     2.5362331592532206E-012
   1.0200000000000001E-002     8.0431156526672432E-012
   1.0300000000000004E-002     1.2996645426532893E-011
   1.0400000000000000E-002     1.4903791742404415E-011
   1.0500000000000002E-002     1.1774425184851722E-011
   1.0599999999999998E-002     3.0193393358440845E-012
   1.0700000000000001E-002    -1.0022565243017478E-011
   1.0800000000000004E-002    -2.4190312947203196E-011
   1.0900000000000000E-002    -3.5297372663611881E-011
   1.1000000000000003E-002    -3.9419981168187235E-011
   1.1099999999999999E-002    -3.4264441978182347E-011
   1.1200000000000002E-002    -2.0116977528239488E-011
   1.1300000000000004E-002     2.3642952829902586E-014
   1.1400000000000000E-002     2.1267997779572667E-011
   1.1500000000000003E-002     3.8401993390779765E-011
   1.1599999999999999E-002     4.7677882475394284E-011
   1.1700000000000002E-002     4.8166554078576951E-011
   1.1800000000000005E-002     4.2103015518435427E-011
   1.1900000000000001E-002     3.3985828040705712E-011
   1.2000000000000004E-002     2.8653534406286596E-011
   1.2100000000000000E-002     2.8993269590715798E-011
   1.2200000000000003E-002     3.4166367651744523E-011
   1.2299999999999998E-002     3.9147757951996098E-011
   1.2400000000000001E-002     3.5965012218364123E-011
   1.2500000000000004E-002     1.6407972203147381E-011
   1.2600000000000000E-002    -2.4626203853905793E-011
   1.2700000000000003E-002    -8.6349906391891551E-011
   1.2799999999999999E-002    -1.6101014965741456E-010
   1.2900000000000002E-002    -2.3517376934734102E-010
   1.3000000000000005E-002    -2.9322352879113112E-010
   1.3100000000000001E-002    -3.2207633782199707E-010
   1.3200000000000003E-002    -3.1557148560956705E-010
   1.3299999999999999E-002    -2.7693181081644980E-010
   1.3400000000000002E-002    -2.1824564377936895E-010
   1.3500000000000005E-002    -1.5690640453591698E-010
   1.3600000000000001E-002    -1.1005256428386900E-010
   1.3700000000000004E-002    -8.8867753433863328E-011
   1.3800000000000000E-002    -9.4795025995519921E-011
   1.3900000000000003E-002    -1.1916265196809661E-010
   1.3999999999999999E-002    -1.4655543445485364E-010
   1.4100000000000001E-002    -1.6088329279906333E-010
   1.4200000000000004E-002    -1.5200377068147475E-010
   1.4300000000000000E-002    -1.2038736674213624E-010
   1.4400000000000003E-002    -7.7875518533776500E-011