  -4.0000000000000001E-002     0.0000000000000000     
  -3.9899999999999998E-002     0.0000000000000000     
  -3.9800000000000002E-002     0.0000000000000000     
  -3.9699999999999999E-002     0.0000000000000000     
  -3.9600000000000003E-002     0.0000000000000000     
  -3.9500000000000000E-002     0.0000000000000000     
  -3.9399999999999998E-002     0.0000000000000000     
  -3.9300000000000002E-002     0.0000000000000000     
  -3.9199999999999999E-002     0.0000000000000000     
  -3.9100000000000003E-002     0.0000000000000000     
  -3.9000000000000000E-002     0.0000000000000000     
  -3.8900000000000004E-002     0.0000000000000000     
  -3.8800000000000001E-002     0.0000000000000000     
  -3.8699999999999998E-002     0.0000000000000000     
  -3.8600000000000002E-002     0.0000000000000000     
  -3.8500000000000000E-002     0.0000000000000000     
  -3.8400000000000004E-002     0.0000000000000000     
  -3.8300000000000001E-002     0.0000000000000000     
  -3.8199999999999998E-002     0.0000000000000000     
  -3.8100000000000002E-002     0.0000000000000000     
  -3.7999999999999999E-002     0.0000000000000000     
  -3.7900000000000003E-002     0.0000000000000000     
  -3.7800000000000000E-002     0.0000000000000000     
  -3.7699999999999997E-002     0.0000000000000000     
  -3.7600000000000001E-002     0.0000000000000000     
  -3.7499999999999999E-002     0.0000000000000000     
  -3.7400000000000003E-002     0.0000000000000000     
  -3.7300000000000000E-002     0.0000000000000000     
  -3.7200000000000004E-002     0.0000000000000000     
  -3.7100000000000001E-002     0.0000000000000000     
  -3.6999999999999998E-002     0.0000000000000000     
  -3.6900000000000002E-002     0.0000000000000000     
  -3.6799999999999999E-002     0.0000000000000000     
  -3.6700000000000003E-002     0.0000000000000000     
  -3.6600000000000001E-002     0.0000000000000000     
  -3.6499999999999998E-002     0.0000000000000000     
  -3.6400000000000002E-002     0.0000000000000000     
  -3.6299999999999999E-002     0.0000000000000000     
  -3.6200000000000003E-002     0.0000000000000000     
  -3.6100000000000000E-002     0.0000000000000000     
  -3.6000000000000004E-002     0.0000000000000000     
  -3.5900000000000001E-002     0.0000000000000000     
  -3.5799999999999998E-002     0.0000000000000000     
  -3.5700000000000003E-002     0.0000000000000000     
  -3.5600000000000000E-002     0.0000000000000000     
  -3.5500000000000004E-002     0.0000000000000000     
  -3.5400000000000001E-002     0.0000000000000000     
  -3.5299999999999998E-002     0.0000000000000000     
  -3.5200000000000002E-002     0.0000000000000000     
  -3.5099999999999999E-002     0.0000000000000000     
  -3.5000000000000003E-002     0.0000000000000000     
  -3.4900000000000000E-002     0.0000000000000000     
  -3.4799999999999998E-002     0.0000000000000000     
  -3.4700000000000002E-002     0.0000000000000000     
  -3.4599999999999999E-002     0.0000000000000000     
  -3.4500000000000003E-002     0.0000000000000000     
  -3.4400000000000000E-002     0.0000000000000000     
  -3.4299999999999997E-002     0.0000000000000000     
  -3.4200000000000001E-002     0.0000000000000000     
  -3.4099999999999998E-002     0.0000000000000000     
  -3.4000000000000002E-002     0.0000000000000000     
  -3.3900000000000000E-002     0.0000000000000000     
  -3.3799999999999997E-002     0.0000000000000000     
  -3.3700000000000001E-002     0.0000000000000000     
  -3.3599999999999998E-002     0.0000000000000000     
  -3.3500000000000002E-002     0.0000000000000000     
  -3.3399999999999999E-002     0.0000000000000000     
  -3.3300000000000003E-002     0.0000000000000000     
  -3.3200000000000000E-002     0.0000000000000000     
  -3.3099999999999997E-002     0.0000000000000000     
  -3.3000000000000002E-002     0.0000000000000000     
  -3.2899999999999999E-002     0.0000000000000000     
  -3.2800000000000003E-002     0.0000000000000000     
  -3.2700000000000000E-002     0.0000000000000000     
  -3.2600000000000004E-002     0.0000000000000000     
  -3.2500000000000001E-002     0.0000000000000000     
  -3.2399999999999998E-002     0.0000000000000000     
  -3.2300000000000002E-002     0.0000000000000000     
  -3.2199999999999999E-002     0.0000000000000000     
  -3.2100000000000004E-002     0.0000000000000000     
  -3.2000000000000001E-002     0.0000000000000000     
  -3.1899999999999998E-002     0.0000000000000000     
  -3.1800000000000002E-002     0.0000000000000000     
  -3.1699999999999999E-002     0.0000000000000000     
  -3.1600000000000003E-002     0.0000000000000000     
  -3.1500000000000000E-002     1.0089348943138683E-043
  -3.1399999999999997E-002     2.5503632050711671E-043
  -3.1300000000000001E-002     3.9796876386824805E-043
  -3.1199999999999999E-002     7.4268818609215305E-043
  -3.1100000000000003E-002     9.0103491256085738E-043
  -3.1000000000000000E-002     1.5274153261140506E-043
  -3.0900000000000000E-002    -1.7488204834773717E-042
  -3.0800000000000001E-002    -4.3692486117647796E-042
  -3.0699999999999998E-002    -6.2694093293892316E-042
  -3.0600000000000002E-002    -4.0007071156473527E-042
  -3.0499999999999999E-002     7.7870155662530085E-042
  -3.0400000000000000E-002     2.1815414492608752E-041
  -3.0300000000000001E-002     2.3290981775542785E-041
  -3.0200000000000001E-002    -4.6340940215221701E-042
  -3.0100000000000002E-002    -8.3919561133020320E-041
  -2.9999999999999999E-002    -2.1127657206318132E-040
  -2.9899999999999999E-002    -3.1670466332512326E-040
  -2.9800000000000000E-002    -2.3147208553103058E-040
  -2.9700000000000001E-002     2.7578534686837427E-040
  -2.9600000000000001E-002     1.2951501056522122E-039
  -2.9499999999999998E-002     2.4460183175221482E-039
  -2.9400000000000003E-002     2.5707072561762348E-039
  -2.9300000000000000E-002    -1.2825804584272186E-040
  -2.9200000000000000E-002    -6.9314766109333849E-039
  -2.9100000000000001E-002    -1.6292643609682605E-038
  -2.8999999999999998E-002    -2.1345029426701126E-038
  -2.8900000000000002E-002    -9.8322695294705806E-039
  -2.8799999999999999E-002     2.9916772132976032E-038
  -2.8700000000000000E-002     9.4974931606301388E-038
  -2.8600000000000000E-002     1.5013261755130055E-037
  -2.8500000000000001E-002     1.2101983480703702E-037
  -2.8400000000000002E-002    -7.9473246710911533E-038
  -2.8299999999999999E-002    -4.7476153400907893E-037
  -2.8200000000000003E-002    -9.1308150551586325E-037
  -2.8100000000000000E-002    -9.9321362594911874E-037
  -2.8000000000000001E-002    -1.5453250415268932E-037
  -2.7900000000000001E-002     1.9501360879575219E-036
  -2.7799999999999998E-002     4.8234187262534805E-036
  -2.7700000000000002E-002     6.5552019315315105E-036
  -2.7600000000000000E-002     3.9725086857562550E-036
  -2.7500000000000000E-002    -5.7606681237030856E-036
  -2.7400000000000001E-002    -2.1928020595124352E-035
  -2.7299999999999998E-002    -3.6669287986568314E-035
  -2.7200000000000002E-002    -3.4083111449122379E-035
  -2.7099999999999999E-002     3.9527303332360414E-036
  -2.7000000000000000E-002     8.3080491145294847E-035
  -2.6900000000000000E-002     1.7676561733281161E-034
  -2.6800000000000001E-002     2.1459999356054381E-034
  -2.6700000000000002E-002     9.8497862938890960E-035
  -2.6599999999999999E-002    -2.3755501050920298E-034
  -2.6500000000000003E-002    -7.3192128203300884E-034
  -2.6400000000000000E-002    -1.1128519813604793E-033
  -2.6300000000000000E-002    -9.1800846625290801E-034
  -2.6200000000000001E-002     2.9438821086716722E-034
  -2.6099999999999998E-002     2.5324203772222410E-033
  -2.6000000000000002E-002     4.9144329461789086E-033
  -2.5899999999999999E-002     5.5282151174088582E-033
  -2.5800000000000000E-002     2.0452266416193665E-033
  -2.5700000000000001E-002    -6.6930951215852051E-033
  -2.5599999999999998E-002    -1.8528729704836307E-032
  -2.5500000000000002E-002    -2.6572032167922547E-032
  -2.5399999999999999E-002    -2.0422946281006296E-032
  -2.5300000000000000E-002     8.4962946395389630E-033
  -2.5200000000000000E-002     5.8098720127315248E-032
  -2.5100000000000001E-002     1.0737216956201850E-031
  -2.5000000000000001E-002     1.1605943721784396E-031
  -2.4899999999999999E-002     3.9764405433161440E-032
  -2.4800000000000003E-002    -1.3794710676532443E-031
  -2.4700000000000000E-002    -3.6731400786641528E-031
  -2.4600000000000000E-002    -5.1336584255212816E-031
  -2.4500000000000001E-002    -3.8806827751577640E-031
  -2.4399999999999998E-002     1.4779683253962156E-031
  -2.4299999999999999E-002     1.0339256164917407E-030
  -2.4199999999999999E-002     1.8879223564036806E-030
  -2.4100000000000000E-002     2.0298579390112321E-030
  -2.4000000000000000E-002     7.5649855832761954E-031
  -2.3900000000000001E-002    -2.1417533403055537E-030
  -2.3800000000000002E-002    -5.8203303154411297E-030
  -2.3699999999999999E-002    -8.1677470188919740E-030
  -2.3599999999999999E-002    -6.3769534097080374E-030
  -2.3500000000000000E-002     1.5138913387177966E-030
  -2.3400000000000001E-002     1.4510360947228310E-029
  -2.3300000000000001E-002     2.7110768140811184E-029
  -2.3199999999999998E-002     2.9886367219147921E-029
  -2.3099999999999999E-002     1.3369196297664725E-029
  -2.3000000000000000E-002    -2.5130393059675782E-029
  -2.2900000000000000E-002    -7.4570292165317052E-029
  -2.2800000000000001E-002    -1.0801067721660550E-028
  -2.2700000000000001E-002    -9.0245159130255259E-029
  -2.2599999999999999E-002     3.2285413139119649E-030
  -2.2499999999999999E-002     1.6136735058257647E-028
  -2.2400000000000000E-002     3.2032574799071339E-028
  -2.2300000000000000E-002     3.7116781888773302E-028
  -2.2200000000000001E-002     2.0425799100001250E-028
  -2.2100000000000002E-002    -2.1569418708390821E-028
  -2.1999999999999999E-002    -7.7532489179287500E-028
  -2.1899999999999999E-002    -1.1907202474060026E-027
  -2.1800000000000000E-002    -1.0873916021806997E-027
  -2.1700000000000001E-002    -1.9384576371929887E-028
  -2.1600000000000001E-002     1.4094834520045405E-027
  -2.1499999999999998E-002     3.1187785369747808E-027
  -2.1399999999999999E-002     3.8769428151841822E-027
  -2.1299999999999999E-002     2.5891271948178860E-027
  -2.1200000000000000E-002    -1.1795972316051886E-027
  -2.1100000000000001E-002    -6.5142130586008992E-027
  -2.1000000000000001E-002    -1.0927041643764952E-026
  -2.0899999999999998E-002    -1.1028250803086457E-026
  -2.0799999999999999E-002    -4.1805641301728744E-027
  -2.0700000000000000E-002     9.3612652212099959E-027
  -2.0600000000000000E-002     2.4930468254568833E-026
  -2.0500000000000001E-002     3.3883150519564988E-026
  -2.0400000000000001E-002     2.6819264728884328E-026
  -2.0299999999999999E-002    -9.0306623980724163E-028
  -2.0199999999999999E-002    -4.3593519817330325E-026
  -2.0100000000000000E-002    -8.3094552517890482E-026
  -2.0000000000000000E-002    -9.3304520369181512E-026
  -1.9900000000000001E-002    -5.2103048683610888E-026
  -1.9799999999999998E-002     4.2839285591765440E-026
  -1.9699999999999999E-002     1.6217121457836076E-025
  -1.9599999999999999E-002     2.4631508768566327E-025
  -1.9500000000000000E-002     2.2625060777659314E-025
  -1.9400000000000001E-002     6.0694958047704648E-026
  -1.9300000000000001E-002    -2.2484796378330360E-025
  -1.9199999999999998E-002    -5.2009712879976434E-025
  -1.9099999999999999E-002    -6.5441637652413287E-025
  -1.9000000000000000E-002    -4.6956176243898137E-025
  -1.8900000000000000E-002     7.9847779758299636E-026
  -1.8800000000000001E-002     8.4537499907865824E-025
  -1.8700000000000001E-002     1.4811164248744612E-024
  -1.8599999999999998E-002     1.5556884323211350E-024
  -1.8499999999999999E-002     7.6660304686878123E-025
  -1.8400000000000000E-002    -8.2342967755631492E-025
  -1.8300000000000000E-002    -2.6581908685195453E-024
  -1.8200000000000001E-002    -3.7916114259991222E-024
  -1.8100000000000002E-002    -3.2650400664464024E-024
  -1.7999999999999999E-002    -6.5665846712819071E-025
  -1.7899999999999999E-002     3.4435352290403081E-024
  -1.7800000000000000E-002     7.3416949420640115E-024
  -1.7700000000000000E-002     8.7464179782692567E-024
  -1.7600000000000001E-002     5.8302930623543709E-024
  -1.7499999999999998E-002    -1.5368539837785307E-024
  -1.7399999999999999E-002    -1.1023117882391410E-023
  -1.7299999999999999E-002    -1.8166761405590634E-023
  -1.7200000000000000E-002    -1.8053686083436254E-023
  -1.7100000000000001E-002    -7.9130227195048979E-024
  -1.7000000000000001E-002     1.0490193431538493E-023
  -1.6899999999999998E-002     3.0104648704563571E-023
  -1.6799999999999999E-002     4.0538249254761509E-023
  -1.6700000000000000E-002     3.2616757324578158E-023
  -1.6600000000000000E-002     3.9562904786989871E-024
  -1.6500000000000001E-002    -3.7218113564972661E-023
  -1.6400000000000001E-002    -7.2798886367730314E-023
  -1.6299999999999999E-002    -8.1303703072001153E-023
  -1.6199999999999999E-002    -4.8584333876315466E-023
  -1.6100000000000000E-002     2.1771532309479518E-023
  -1.6000000000000000E-002     1.0426816346413037E-022
  -1.5900000000000001E-002     1.5804951929492910E-022
  -1.5799999999999998E-002     1.4419881311702893E-022
  -1.5699999999999999E-002     4.7815557369741381E-023
  -1.5599999999999999E-002    -1.0579468504637993E-022
  -1.5500000000000000E-002    -2.5177027166834349E-022
  -1.5400000000000000E-002    -3.0838425661583535E-022
  -1.5300000000000001E-002    -2.1641700950609519E-022
  -1.5199999999999998E-002     2.1171532593577468E-023
  -1.5099999999999999E-002     3.2110869661302062E-022
  -1.4999999999999999E-002     5.4009350516359538E-022
  -1.4900000000000000E-002     5.3443965701434225E-022
  -1.4800000000000001E-002     2.3851993281552720E-022
  -1.4700000000000001E-002    -2.7536352362169351E-022
  -1.4599999999999998E-002    -7.9436632130233855E-022
  -1.4499999999999999E-002    -1.0387026707224668E-021
  -1.4400000000000000E-002    -7.9415594156524697E-022
  -1.4300000000000000E-002    -4.8496208646871417E-023
  -1.4200000000000001E-002     9.4186346914917964E-022
  -1.4099999999999998E-002     1.7122370088486663E-021
  -1.3999999999999999E-002     1.7814865260138814E-021
  -1.3899999999999999E-002     9.0887651202355575E-022
  -1.3800000000000000E-002    -7.0547974642144198E-022
  -1.3700000000000000E-002    -2.4023150602001222E-021
  -1.3600000000000001E-002    -3.2893129883339164E-021
  -1.3499999999999998E-002    -2.6581588328781843E-021
  -1.3399999999999999E-002    -4.1973627741288005E-022
  -1.3299999999999999E-002     2.6738599164389198E-021
  -1.3200000000000000E-002     5.2004639123849279E-021
  -1.3100000000000001E-002     5.6483789829081246E-021
  -1.3000000000000001E-002     3.2048793754908113E-021
  -1.2899999999999998E-002    -1.6164806545518707E-021
  -1.2799999999999999E-002    -6.8918030997083012E-021
  -1.2699999999999999E-002    -9.9373617538870741E-021
  -1.2600000000000000E-002    -8.5408183469883059E-021
  -1.2500000000000001E-002    -2.2657383726106325E-021
  -1.2399999999999998E-002     6.8506557109951898E-021
  -1.2299999999999998E-002     1.4737767113932189E-020
  -1.2199999999999999E-002     1.6928102601881393E-020
  -1.2100000000000000E-002     1.0822396541704797E-020
  -1.2000000000000000E-002    -2.4643552217287332E-021
  -1.1900000000000001E-002    -1.7763488781487462E-020
  -1.1799999999999998E-002    -2.7575093232872333E-020
  -1.1699999999999999E-002    -2.5446334232944313E-020
  -1.1599999999999999E-002    -9.6191969094674956E-021
  -1.1500000000000000E-002     1.4918913205732767E-020
  -1.1400000000000000E-002     3.7449910762045022E-020
  -1.1300000000000001E-002     4.5797904745635407E-020
  -1.1199999999999998E-002     3.2371668035822989E-020
  -1.1099999999999999E-002    -7.9878076168440637E-022
  -1.0999999999999999E-002    -4.0921759045166272E-020
  -1.0900000000000000E-002    -6.8698002569731041E-020
  -1.0800000000000001E-002    -6.6959953931089347E-020
  -1.0699999999999998E-002    -3.0139656862167891E-020
  -1.0599999999999998E-002     3.0234905417233665E-020
  -1.0499999999999999E-002     8.7799438220564552E-020
  -1.0400000000000000E-002     1.1190721004546480E-019
  -1.0300000000000000E-002     8.2759646468129164E-020
  -1.0200000000000001E-002     4.1590435211806660E-021
  -1.0099999999999998E-002    -9.3349781356704154E-020
  -9.9999999999999985E-003    -1.6270391909794874E-019
  -9.8999999999999991E-003    -1.6144719910293341E-019
  -9.7999999999999997E-003    -7.5014812553931986E-020
  -9.7000000000000003E-003     6.9592255897734755E-020
  -9.6000000000000009E-003     2.0899863304312747E-019
  -9.4999999999999980E-003     2.6884372864466120E-019
  -9.3999999999999986E-003     2.0038231911716593E-019
  -9.2999999999999992E-003     1.1514978551165395E-020
  -9.1999999999999998E-003    -2.2517611447555674E-019
  -9.1000000000000004E-003    -3.9645965428448206E-019
  -9.0000000000000011E-003    -3.9878028364360543E-019
  -8.8999999999999982E-003    -1.9417254501175964E-019
  -8.7999999999999988E-003     1.5615587982079655E-019
  -8.6999999999999994E-003     5.0264498461427907E-019
  -8.5999999999999965E-003     6.6615263892429379E-019
  -8.5000000000000006E-003     5.2408405852558158E-019
  -8.3999999999999977E-003     8.4969834290779640E-020
  -8.3000000000000018E-003    -4.8925505014736522E-019
  -8.1999999999999990E-003    -9.3514949937985387E-019
  -8.0999999999999961E-003    -1.0018397988935995E-018
  -8.0000000000000002E-003    -5.8097138890117296E-019
  -7.8999999999999973E-003     2.1084611509187052E-019
  -7.8000000000000014E-003     1.0482508351124185E-018
  -7.6999999999999985E-003     1.5223275863085302E-018
  -7.6000000000000026E-003     1.3313456449404495E-018
  -7.4999999999999997E-003     4.5208227720226814E-019
  -7.3999999999999969E-003    -7.9885644911435175E-019
  -7.3000000000000009E-003    -1.8646046874228927E-018
  -7.1999999999999981E-003    -2.1864825840535084E-018
  -7.1000000000000021E-003    -1.4846145610258594E-018
  -6.9999999999999993E-003     5.4475672374995957E-020
  -6.8999999999999964E-003     1.7946256211912128E-018
  -6.8000000000000005E-003     2.8974985008729579E-018
  -6.6999999999999976E-003     2.7138673000183297E-018
  -6.6000000000000017E-003     1.1435081272734126E-018
  -6.4999999999999988E-003    -1.2252930254001790E-018
  -6.3999999999999960E-003    -3.3049091475882412E-018
  -6.3000000000000000E-003    -3.9844582867255610E-018
  -6.1999999999999972E-003    -2.6967984280782980E-018
  -6.1000000000000013E-003     1.9950757561939110E-019
  -5.9999999999999984E-003     3.4510446648661470E-018
  -5.9000000000000025E-003     5.4075795172311924E-018
  -5.7999999999999996E-003     4.8106433874113811E-018
  -5.6999999999999967E-003     1.5162703494779575E-018
  -5.6000000000000008E-003    -3.2319975192899078E-018
  -5.4999999999999979E-003    -7.1988792519744826E-018
  -5.4000000000000020E-003    -8.1355181934448148E-018
  -5.2999999999999992E-003    -4.9401604325927903E-018
  -5.1999999999999963E-003     1.5610818251872521E-018
  -5.1000000000000004E-003     8.6789799917952168E-018
  -4.9999999999999975E-003     1.2886591341862577E-017
  -4.9000000000000016E-003     1.1452407397844662E-017
  -4.7999999999999987E-003     3.9610292230556091E-018
  -4.6999999999999958E-003    -7.0626732107696634E-018
  -4.5999999999999999E-003    -1.6888698767727876E-017
  -4.4999999999999971E-003    -2.0533165556769135E-017
  -4.4000000000000011E-003    -1.5152253101715733E-017
  -4.2999999999999983E-003    -1.7644250502317487E-018
  -4.2000000000000023E-003     1.4649360376507995E-017
  -4.0999999999999995E-003     2.6954533910432562E-017
  -3.9999999999999966E-003     2.8964506698320064E-017
  -3.9000000000000007E-003     1.8493414266829724E-017
  -3.7999999999999978E-003    -1.1383603755263420E-018
  -3.7000000000000019E-003    -2.2073754706063422E-017
  -3.5999999999999990E-003    -3.5179978216990466E-017
  -3.4999999999999962E-003    -3.4252556549085812E-017
  -3.4000000000000002E-003    -1.9180720292161259E-017
  -3.2999999999999974E-003     3.6147354362842656E-018
  -3.2000000000000015E-003     2.3964876529178080E-017
  -3.0999999999999986E-003     3.2847414916374634E-017
  -2.9999999999999957E-003     2.7048420564318555E-017
  -2.8999999999999998E-003     1.1081579847695302E-017
  -2.7999999999999969E-003    -4.9934110117065040E-018
  -2.7000000000000010E-003    -1.1155662143355551E-017
  -2.5999999999999981E-003    -3.7101209414402055E-018
  -2.5000000000000022E-003     1.1281696344567805E-017
  -2.3999999999999994E-003     2.0024366761987768E-017
  -2.2999999999999965E-003     8.4598763911421708E-018
  -2.2000000000000006E-003    -2.7965732430776586E-017
  -2.0999999999999977E-003    -7.7483960124087727E-017
  -2.0000000000000018E-003    -1.1304029228490002E-016
  -1.8999999999999989E-003    -1.0296099064182297E-016
  -1.7999999999999960E-003    -2.8134573228688460E-017
  -1.7000000000000001E-003     1.0187140186918852E-016
  -1.5999999999999973E-003     2.4292060541284040E-016
  -1.5000000000000013E-003     3.2698701077127400E-016
  -1.3999999999999985E-003     2.8890480650941468E-016
  -1.2999999999999956E-003     1.0033152905830471E-016
  -1.1999999999999997E-003    -2.0398985942628948E-016
  -1.0999999999999968E-003    -5.2279810534733317E-016
  -1.0000000000000009E-003    -7.1573707001793062E-016
  -8.9999999999999802E-004    -6.5697643570320928E-016
  -8.0000000000000210E-004    -2.9686310456534246E-016
  -6.9999999999999923E-004     2.9473935473855952E-016
  -5.9999999999999637E-004     9.2766370756933170E-016
  -5.0000000000000044E-004     1.3438410642249970E-015
  -3.9999999999999758E-004     1.3121854312828540E-015
  -3.0000000000000165E-004     7.3414129601675365E-016
  -1.9999999999999879E-004    -2.8342278280500525E-016
  -9.9999999999995925E-005    -1.4262836280142053E-015
   0.0000000000000000         -2.2577318043137369E-015
   1.0000000000000286E-004    -2.3725126037214567E-015
   1.9999999999999879E-004    -1.5696817531822668E-015
   3.0000000000000165E-004     2.3282191134748265E-017
   4.0000000000000452E-004     1.9354658375531032E-015
   5.0000000000000044E-004     3.4736031308675542E-015
   6.0000000000000331E-004     3.9560157111414272E-015
   6.9999999999999923E-004     2.9865401279550183E-015
   8.0000000000000210E-004     6.6649263910737453E-016
   8.9999999999999802E-004    -2.3509041579622891E-015
   1.0000000000000009E-003    -5.0140250837989869E-015
   1.1000000000000038E-003    -6.2119706520900615E-015
   1.1999999999999997E-003    -5.2003926609856671E-015
   1.3000000000000025E-003    -1.9634244893178363E-015
   1.3999999999999985E-003     2.6415613962302341E-015
   1.5000000000000013E-003     7.0538333102343215E-015
   1.6000000000000042E-003     9.4878083186744448E-015
   1.7000000000000001E-003     8.5935922481262909E-015
   1.8000000000000030E-003     4.0777478981890262E-015
   1.8999999999999989E-003    -2.9664110252382303E-015
   2.0000000000000018E-003    -1.0208146312843183E-014
   2.1000000000000046E-003    -1.4750208026563863E-014
   2.2000000000000006E-003    -1.4168641981242638E-014
   2.3000000000000034E-003    -7.5909483370330613E-015
   2.3999999999999994E-003     3.6066218201790800E-015
   2.5000000000000022E-003     1.5846663377664348E-014
   2.5999999999999981E-003     2.4295872930700513E-014
   2.7000000000000010E-003     2.4539172980403944E-014
   2.8000000000000039E-003     1.4482328774797007E-014
   2.8999999999999998E-003    -4.2296806214545037E-015
   3.0000000000000027E-003    -2.5970079290727789E-014
   3.0999999999999986E-003    -4.2450336865465510E-014
   3.2000000000000015E-003    -4.5452831494256773E-014
   3.3000000000000043E-003    -3.0216131788503298E-014
   3.4000000000000002E-003     1.7416434175185195E-015
   3.5000000000000031E-003     4.1650307470520245E-014
   3.5999999999999990E-003     7.5223295203496326E-014
   3.7000000000000019E-003     8.7070609511470665E-014
   3.7999999999999978E-003     6.6662204456589130E-014
   3.9000000000000007E-003     1.3807895731204715E-014
   4.0000000000000036E-003    -5.8680782401201309E-014
   4.0999999999999995E-003    -1.2690629797029729E-013
   4.2000000000000023E-003    -1.6271021802041069E-013
   4.2999999999999983E-003    -1.4383866276876378E-013
   4.4000000000000011E-003    -6.4167787294615308E-014
   4.5000000000000040E-003     6.0074612385357939E-014
   4.5999999999999999E-003     1.9148087792002916E-013
   4.7000000000000028E-003     2.8123114731090637E-013
   4.7999999999999987E-003     2.8550715936402626E-013
   4.9000000000000016E-003     1.8354274263637782E-013
   5.0000000000000044E-003    -9.4152328416878019E-015
   5.1000000000000004E-003    -2.4036781137541652E-013
   5.2000000000000032E-003    -4.3103216308681969E-013
   5.2999999999999992E-003    -5.0253806107777854E-013
   5.4000000000000020E-003    -4.0520253710533971E-013
   5.4999999999999979E-003    -1.4286751577781420E-013
   5.6000000000000008E-003     2.1859905107845384E-013
   5.7000000000000037E-003     5.6482525904663627E-013
   5.7999999999999996E-003     7.6726537449889332E-013
   5.9000000000000025E-003     7.2886130724619802E-013
   5.9999999999999984E-003     4.2552880706939189E-013
   6.1000000000000013E-003    -7.3078424821931831E-014
   6.2000000000000041E-003    -6.1486286982020966E-013
   6.3000000000000000E-003    -1.0094916439232215E-012
   6.4000000000000029E-003    -1.0938476686928045E-012
   6.4999999999999988E-003    -7.9703219935459146E-013
   6.6000000000000017E-003    -1.8003006312279635E-013
   6.7000000000000046E-003     5.6890494919137335E-013
   6.8000000000000005E-003     1.1878881125276797E-012
   6.9000000000000034E-003     1.4306249327550313E-012
   6.9999999999999993E-003     1.1620895218333871E-012
   7.1000000000000021E-003     4.2481979305869499E-013
   7.1999999999999981E-003    -5.5380217555897615E-013
   7.3000000000000009E-003    -1.4243225739465903E-012
   7.4000000000000038E-003    -1.8335508892436403E-012
   7.4999999999999997E-003    -1.5604502282343113E-012
   7.6000000000000026E-003    -6.1951621133440882E-013
   7.6999999999999985E-003     7.1271748268778023E-013
   7.8000000000000014E-003     1.9687049299804693E-012
   7.9000000000000042E-003     2.6441420667572268E-012
   8.0000000000000002E-003     2.3870259067970689E-012
   8.1000000000000030E-003     1.1532152186313760E-012
   8.1999999999999990E-003    -7.3578621494208019E-013
   8.3000000000000018E-003    -2.6675751451515906E-012
   8.4000000000000047E-003    -3.9340111029906311E-012
   8.5000000000000006E-003    -3.9865229173319250E-012
   8.6000000000000035E-003    -2.6605059301465506E-012
   8.6999999999999994E-003    -2.7864827958044847E-013
   8.8000000000000023E-003     2.4207083820088071E-012
   8.8999999999999982E-003     4.5221456787536418E-012
   9.0000000000000011E-003     5.2642278557113453E-012
   9.1000000000000039E-003     4.3433113008917168E-012
   9.1999999999999998E-003     2.0669063249129094E-012
   9.3000000000000027E-003    -7.2146807842191074E-013
   9.3999999999999986E-003    -2.9419097366534253E-012
   9.5000000000000015E-003    -3.7070988639920088E-012
   9.6000000000000044E-003    -2.7205770188748479E-012
   9.7000000000000003E-003    -4.7526576858053504E-013
   9.8000000000000032E-003     1.8587358215083061E-012
   9.8999999999999991E-003     2.8567016373964860E-012
   1.0000000000000002E-002     1.4444384273740174E-012
   1.0100000000000005E-002    -2.5362407486684280E-012
   1.0200000000000001E-002    -8.0431199894759331E-012
   1.0300000000000004E-002    -1.2996642824447679E-011
   1.0400000000000000E-002    -1.4903781334063559E-011
   1.0500000000000002E-002    -1.1774413041787390E-011
   1.0599999999999998E-002    -3.0193341316736566E-012
   1.0700000000000001E-002     1.0022561773570526E-011
   1.0800000000000004E-002     2.4190302538862340E-011
   1.0900000000000000E-002     3.5297358785824073E-011
   1.1000000000000003E-002     3.9419970759846379E-011
   1.1099999999999999E-002     3.4264438508735395E-011
   1.1200000000000002E-002     2.0116986201856868E-011
   1.1300000000000004E-002    -2.3621499179414529E-014
   1.1400000000000000E-002    -2.1267966554550100E-011
   1.1500000000000003E-002    -3.8401965635204149E-011
   1.1599999999999999E-002    -4.7677879005947332E-011
   1.1700000000000002E-002    -4.8166578364705614E-011
   1.1800000000000005E-002    -4.2103050212904947E-011
   1.1900000000000001E-002    -3.3985845387940472E-011
   1.2000000000000004E-002    -2.8653515324328360E-011
   1.2100000000000000E-002    -2.8993222753181946E-011
   1.2200000000000003E-002    -3.4166312140593291E-011
   1.2299999999999998E-002    -3.9147730196420483E-011
   1.2400000000000001E-002    -3.5965057321174498E-011
   1.2500000000000004E-002    -1.6408104042131555E-011
   1.2600000000000000E-002     2.4626030381558195E-011
   1.2700000000000003E-002     8.6349781491801281E-011
   1.2799999999999999E-002     1.6101013577962675E-010
   1.2900000000000002E-002     2.3517390812521910E-010
   1.3000000000000005E-002     2.9322380634688727E-010
   1.3100000000000001E-002     3.2207667088890446E-010
   1.3200000000000003E-002     3.1557167989859636E-010
   1.3299999999999999E-002     2.7693178306087418E-010
   1.3400000000000002E-002     2.1824544949033964E-010
   1.3500000000000005E-002     1.5690611310237301E-010
   1.3600000000000001E-002     1.1005233530037017E-010
   1.3700000000000004E-002     8.8867760372757232E-011
   1.3800000000000000E-002     9.4795310490169982E-011
   1.3900000000000003E-002     1.1916305442394304E-010
   1.3999999999999999E-002     1.4655569813282199E-010
   1.4100000000000001E-002     1.6088316789897306E-010
   1.4200000000000004E-002     1.5200325720332586E-010
   1.4300000000000000E-002     1.2038679775283612E-010
   1.4400000000000003E-002     7.7875254855808151E-011