 -0.12000000000000000          0.0000000000000000     
 -0.11920000000000000          0.0000000000000000     
 -0.11839999999999999          0.0000000000000000     
 -0.11760000000000000          0.0000000000000000     
 -0.11680000000000000          0.0000000000000000     
 -0.11599999999999999          0.0000000000000000     
 -0.11520000000000000          0.0000000000000000     
 -0.11440000000000000          0.0000000000000000     
 -0.11359999999999999          0.0000000000000000     
 -0.11280000000000000          0.0000000000000000     
 -0.11199999999999999          0.0000000000000000     
 -0.11119999999999999          0.0000000000000000     
 -0.11040000000000000          0.0000000000000000     
 -0.10959999999999999          0.0000000000000000     
 -0.10879999999999999          0.0000000000000000     
 -0.10800000000000000          0.0000000000000000     
 -0.10719999999999999          0.0000000000000000     
 -0.10639999999999999         -5.6051938572992683E-045
 -0.10560000000000000         -5.7453237037317500E-044
 -0.10479999999999999         -3.5733110840282835E-043
 -0.10400000000000000         -1.6493282925103097E-042
 -0.10319999999999999         -5.7481263006603996E-042
 -0.10239999999999999         -1.5054149402241510E-041
 -0.10160000000000000         -2.7761123876738951E-041
 -0.10080000000000000         -2.5898798217651269E-041
  -9.9999999999999992E-002     3.3505046282006376E-041
  -9.9199999999999997E-002     1.8050405778660834E-040
  -9.8399999999999987E-002     2.9303533096421277E-040
  -9.7599999999999992E-002    -3.3945053999804369E-041
  -9.6799999999999997E-002    -1.0925741957540236E-039
  -9.6000000000000002E-002    -1.7252772679782505E-039
  -9.5199999999999993E-002     9.7795638916303956E-040
  -9.4399999999999998E-002     5.5218712493120503E-039
  -9.3599999999999989E-002    -4.8176080684101481E-039
  -9.2799999999999994E-002    -4.5293946054616770E-038
  -9.1999999999999998E-002    -4.1278979325796448E-038
  -9.1199999999999989E-002     2.3666123947946567E-037
  -9.0399999999999994E-002     8.1469286511542632E-037
  -8.9599999999999999E-002     4.9111210869857518E-037
  -8.8799999999999990E-002    -3.3487723990909779E-036
  -8.7999999999999995E-002    -1.0136182893784817E-035
  -8.7200000000000000E-002    -6.2766318683028914E-036
  -8.6399999999999991E-002     3.3403517298116224E-035
  -8.5599999999999996E-002     1.0012703612017074E-034
  -8.4799999999999986E-002     6.9135695792873612E-035
  -8.3999999999999991E-002    -2.7237287767407066E-034
  -8.3199999999999996E-002    -8.4518034640572856E-034
  -8.2400000000000001E-002    -6.5856230710028812E-034
  -8.1599999999999992E-002     1.9317651718131146E-033
  -8.0799999999999997E-002     6.4309973502342674E-033
  -7.9999999999999988E-002     5.8161322548336228E-033
  -7.9199999999999993E-002    -1.1874345081591618E-032
  -7.8399999999999997E-002    -4.5143103179275472E-032
  -7.7600000000000002E-002    -4.9362728230648205E-032
  -7.6799999999999993E-002     5.7862381110610673E-032
  -7.5999999999999984E-002     2.8813066303485556E-031
  -7.5199999999999989E-002     3.9192542712912958E-031
  -7.4399999999999994E-002    -1.5868621253755995E-031
  -7.3599999999999999E-002    -1.6054597155395070E-030
  -7.2800000000000004E-002    -2.7696836146052065E-030
  -7.1999999999999995E-002    -5.9366691794211076E-031
  -7.1199999999999986E-002     7.3554627430387370E-030
  -7.0399999999999990E-002     1.6759833580577680E-029
  -6.9599999999999995E-002     1.2077277224755076E-029
  -6.8800000000000000E-002    -2.4624470823511253E-029
  -6.7999999999999991E-002    -8.4403494626781734E-029
  -6.7199999999999996E-002    -1.0013700615852653E-028
  -6.6399999999999987E-002     3.3771813520593183E-029
  -6.5599999999999992E-002     3.4096240030843858E-028
  -6.4799999999999996E-002     5.8769275585315266E-028
  -6.4000000000000001E-002     2.6350751647626017E-028
  -6.3199999999999992E-002    -1.0093101651893635E-027
  -6.2399999999999990E-002    -2.6614117752696110E-027
  -6.1599999999999995E-002    -2.6682376561785083E-027
  -6.0799999999999993E-002     1.4122116280672622E-027
  -5.9999999999999991E-002     9.2929324564111590E-027
  -5.9199999999999996E-002     1.4596239403265939E-026
  -5.8399999999999994E-002     6.0136835105400894E-027
  -5.7599999999999991E-002    -2.2792789246144021E-026
  -5.6799999999999989E-002    -5.7668499347800059E-026
  -5.5999999999999994E-002    -5.7874940548910904E-026
  -5.5199999999999999E-002     2.0464959322449967E-026
  -5.4399999999999990E-002     1.6830022007766883E-025
  -5.3599999999999995E-002     2.7288971617077966E-025
  -5.2799999999999986E-002     1.4646717564885141E-025
  -5.1999999999999991E-002    -3.1412199657248466E-025
  -5.1199999999999996E-002    -9.0035081417112371E-025
  -5.0399999999999986E-002    -1.0163510353468367E-024
  -4.9599999999999991E-002    -1.0550159494435725E-026
  -4.8799999999999996E-002     2.0782546464504345E-024
  -4.7999999999999987E-002     3.8603977303516787E-024
  -4.7199999999999992E-002     2.9096280547147119E-024
  -4.6399999999999997E-002    -2.3769591947950863E-024
  -4.5599999999999988E-002    -1.0107344245877537E-023
  -4.4799999999999993E-002    -1.3785139214901824E-023
  -4.3999999999999997E-002    -5.4769169034038295E-024
  -4.3199999999999988E-002     1.6532116969949673E-023
  -4.2399999999999993E-002     4.0305863453857882E-023
  -4.1599999999999998E-002     4.1545955952308934E-023
  -4.0799999999999989E-002    -4.6495550500578273E-025
  -3.9999999999999994E-002    -7.7562179974748586E-023
  -3.9199999999999985E-002    -1.3778055243972939E-022
  -3.8399999999999990E-002    -1.0498581862860251E-022
  -3.7599999999999995E-002     6.0822703027252518E-023
  -3.6799999999999986E-002     2.9456626607739650E-022
  -3.5999999999999990E-002     4.1330548331351836E-022
  -3.5199999999999995E-002     2.1371501575530667E-022
  -3.4399999999999986E-002    -3.3995699439767695E-022
  -3.3599999999999991E-002    -9.6229489086375695E-022
  -3.2799999999999996E-002    -1.1032859683482165E-021
  -3.1999999999999987E-002    -3.0059621786271004E-022
  -3.1199999999999992E-002     1.3204048242462432E-021
  -3.0399999999999996E-002     2.7848103628589963E-021
  -2.9599999999999987E-002     2.6436490428803028E-021
  -2.8799999999999992E-002     2.4414576062542688E-023
  -2.7999999999999997E-002    -4.2188194373411265E-021
  -2.7199999999999988E-002    -7.2614203553745254E-021
  -2.6399999999999993E-002    -5.7144560927875497E-021
  -2.5599999999999998E-002     1.6701373324943210E-021
  -2.4799999999999989E-002     1.1718556262526504E-020
  -2.3999999999999994E-002     1.7239812367907504E-020
  -2.3199999999999985E-002     1.1160194808769006E-020
  -2.2399999999999989E-002    -7.3373214467183682E-021
  -2.1599999999999994E-002    -2.9008758793140119E-020
  -2.0799999999999985E-002    -3.7487631490447147E-020
  -1.9999999999999990E-002    -1.9630910406637009E-020
  -1.9199999999999995E-002     2.2103383953713553E-020
  -1.8399999999999986E-002     6.4753727528091176E-020
  -1.7599999999999991E-002     7.4761669437096617E-020
  -1.6799999999999995E-002     3.0713283998753541E-020
  -1.5999999999999986E-002    -5.4554635811752093E-020
  -1.5199999999999991E-002    -1.3080861015972826E-019
  -1.4399999999999996E-002    -1.3607608337576887E-019
  -1.3599999999999987E-002    -4.1105661328617270E-020
  -1.2799999999999992E-002     1.1631330390050214E-019
  -1.1999999999999997E-002     2.3814297190854386E-019
  -1.1199999999999988E-002     2.2243693172648153E-019
  -1.0399999999999993E-002     4.0640110508940501E-020
  -9.5999999999999835E-003    -2.1874786129085988E-019
  -8.7999999999999884E-003    -3.8486493439135556E-019
  -7.9999999999999932E-003    -3.1312433534645574E-019
  -7.1999999999999842E-003    -2.9111022227541255E-021
  -6.3999999999999890E-003     3.6644406158950005E-019
  -5.5999999999999939E-003     5.3199526560282702E-019
  -4.7999999999999848E-003     3.3356740625206197E-019
  -3.9999999999999897E-003    -1.3662036821882876E-019
  -3.1999999999999945E-003    -5.5221104278574017E-019
  -2.3999999999999855E-003    -5.6740118075951084E-019
  -1.5999999999999903E-003    -1.0156716804521639E-019
  -7.9999999999999516E-004     5.2628265289495925E-019
   1.3877787807814457E-017     7.6945472783146066E-019
   8.0000000000000904E-004     2.7404149896939715E-019
   1.6000000000000042E-003    -7.3917557471380395E-019
   2.4000000000000132E-003    -1.4746892208558356E-018
   3.2000000000000084E-003    -1.0705523482098841E-018
   4.0000000000000036E-003     6.5082482707732134E-019
   4.8000000000000126E-003     2.7494073218318237E-018
   5.6000000000000216E-003     3.5323945693882870E-018
   6.4000000000000168E-003     1.6933610332291289E-018
   7.2000000000000119E-003    -2.4457102346796641E-018
   8.0000000000000071E-003    -6.5677855259399067E-018
   8.8000000000000023E-003    -7.4614851082223049E-018
   9.5999999999999974E-003    -3.2020695043422798E-018
   1.0400000000000020E-002     4.9436015039410109E-018
   1.1200000000000015E-002     1.2437709374751488E-017
   1.2000000000000011E-002     1.3814978329542080E-017
   1.2800000000000006E-002     6.3722176952558320E-018
   1.3600000000000001E-002    -7.1732308627210509E-018
   1.4400000000000024E-002    -1.9270027674176160E-017
   1.5200000000000019E-002    -2.1710764692218002E-017
   1.6000000000000014E-002    -1.1177567540337180E-017
   1.6800000000000009E-002     7.5672492485239476E-018
   1.7600000000000005E-002     2.3624695193543197E-017
   1.8400000000000000E-002     2.6599570857251356E-017
   1.9200000000000023E-002     1.3939576545210943E-017
   2.0000000000000018E-002    -6.3198509586266312E-018
   2.0800000000000013E-002    -2.0266576825871870E-017
   2.1600000000000008E-002    -1.8035856002273566E-017
   2.2400000000000003E-002    -2.2389951112656717E-018
   2.3199999999999998E-002     1.2088451386255061E-017
   2.4000000000000021E-002     7.9394796969921975E-018
   2.4800000000000016E-002    -1.8652057582150044E-017
   2.5600000000000012E-002    -5.0052027194926312E-017
   2.6400000000000007E-002    -5.3945745009225724E-017
   2.7200000000000002E-002    -5.3241041721250973E-018
   2.8000000000000025E-002     8.8630622542378701E-017
   2.8800000000000020E-002     1.7895830206436099E-016
   2.9600000000000015E-002     1.9332260442125464E-016
   3.0400000000000010E-002     7.8992750796274251E-017
   3.1200000000000006E-002    -1.5122452431223408E-016
   3.2000000000000001E-002    -4.0034186394850933E-016
   3.2800000000000024E-002    -5.1716263633057270E-016
   3.3600000000000019E-002    -3.7141807107993912E-016
   3.4400000000000014E-002     5.8236810611293560E-017
   3.5200000000000009E-002     6.3227303743389283E-016
   3.6000000000000004E-002     1.0755195553805558E-015
   3.6799999999999999E-002     1.0880045033857290E-015
   3.7600000000000022E-002     5.0481035486076324E-016
   3.8400000000000017E-002    -5.6798911302836301E-016
   3.9200000000000013E-002    -1.7215778422727756E-015
   4.0000000000000008E-002    -2.3651692515852356E-015
   4.0800000000000003E-002    -1.9823328057993941E-015
   4.1600000000000026E-002    -4.3017108209813517E-016
   4.2400000000000021E-002     1.8630415559475451E-015
   4.3200000000000016E-002     3.9396408702051071E-015
   4.4000000000000011E-002     4.6500063219693469E-015
   4.4800000000000006E-002     3.2013322250274215E-015
   4.5600000000000002E-002    -3.1063689260910185E-016
   4.6400000000000025E-002    -4.6828661181251303E-015
   4.7200000000000020E-002    -7.9187416172910030E-015
   4.8000000000000015E-002    -8.0648658121206841E-015
   4.8800000000000010E-002    -4.2615625180726820E-015
   4.9600000000000005E-002     2.5183970882270649E-015
   5.0400000000000000E-002     9.5422987952042612E-015
   5.1200000000000023E-002     1.3371080840305673E-014
   5.2000000000000018E-002     1.1539369550769406E-014
   5.2800000000000014E-002     4.0527184981141353E-015
   5.3600000000000009E-002    -6.1926828648481338E-015
   5.4400000000000004E-002    -1.4527773786483095E-014
   5.5199999999999999E-002    -1.6808462513008028E-014
   5.6000000000000022E-002    -1.1752915874134635E-014
   5.6800000000000017E-002    -1.9287954530934756E-015
   5.7600000000000012E-002     7.4331223820370620E-015
   5.8400000000000007E-002     1.1417936366352188E-014
   5.9200000000000003E-002     8.6030527591141742E-015
   6.0000000000000026E-002     2.3929606143428860E-015
   6.0800000000000021E-002    -7.4274985067837671E-016
   6.1600000000000016E-002     4.3930144081900241E-015
   6.2400000000000011E-002     1.7169369699305929E-014
   6.3200000000000006E-002     2.9431091488592645E-014
   6.4000000000000001E-002     2.8623855537332141E-014
   6.4800000000000024E-002     5.0587208948432282E-015
   6.5600000000000019E-002    -4.0199695785711476E-014
   6.6400000000000015E-002    -9.1620037023700668E-014
   6.7200000000000010E-002    -1.2307895588120621E-013
   6.8000000000000005E-002    -1.0899868654141651E-013
   6.8800000000000000E-002    -3.8144194156345887E-014
   6.9600000000000023E-002     7.6893366348675107E-014
   7.0400000000000018E-002     2.0027324254285467E-013
   7.1200000000000013E-002     2.8467170027496325E-013
   7.2000000000000008E-002     2.8960885881286480E-013
   7.2800000000000004E-002     1.9798984500496442E-013
   7.3600000000000027E-002     2.3159476588005198E-014
   7.4400000000000022E-002    -1.9629012770663173E-013
   7.5200000000000017E-002    -4.1014964319817382E-013
   7.6000000000000012E-002    -5.7055721909213264E-013
   7.6800000000000007E-002    -6.3901222637982591E-013
   7.7600000000000002E-002    -5.8492842730864525E-013
   7.8400000000000025E-002    -3.8152478138570034E-013
   7.9200000000000020E-002    -8.7435958538543967E-015
   8.0000000000000016E-002     5.3014623940805805E-013
   8.0800000000000011E-002     1.1811044763748724E-012
   8.1600000000000006E-002     1.8150386792495365E-012
   8.2400000000000001E-002     2.2265561790135724E-012
   8.3200000000000024E-002     2.1709821440563104E-012
   8.4000000000000019E-002     1.4397423140841137E-012
   8.4800000000000014E-002    -4.5370049270255716E-014
   8.5600000000000009E-002    -2.1529438388318001E-012
   8.6400000000000005E-002    -4.5126866653200093E-012
   8.7200000000000027E-002    -6.5566987603182803E-012
   8.8000000000000023E-002    -7.6275834606787107E-012
   8.8800000000000018E-002    -7.1265606263470893E-012
   8.9600000000000013E-002    -4.6632775765886869E-012
   9.0400000000000008E-002    -1.7348233581019473E-013
   9.1200000000000003E-002     6.0133590815136806E-012
   9.2000000000000026E-002     1.3157778686045951E-011
   9.2800000000000021E-002     2.0139685058540024E-011
   9.3600000000000017E-002     2.5533570049973697E-011
   9.4400000000000012E-002     2.7741177410778306E-011
   9.5200000000000007E-002     2.5196482053568836E-011
   9.6000000000000002E-002     1.6641008016016201E-011
   9.6800000000000025E-002     1.4301203450639566E-012
   9.7600000000000020E-002    -2.0212140988684624E-011
   9.8400000000000015E-002    -4.7095580907319246E-011
   9.9200000000000010E-002    -7.7210959847917593E-011
  0.10000000000000001         -1.0814239781442581E-010
  0.10080000000000003         -1.3767041673329317E-010
  0.10160000000000002         -1.6440571126707937E-010
  0.10240000000000002         -1.8826014358541698E-010
  0.10320000000000001         -2.1060239663306390E-010
  0.10400000000000001         -2.3405086202465952E-010
  0.10480000000000000         -2.6198301861235507E-010
  0.10560000000000003         -2.9793387201770827E-010
  0.10640000000000002         -3.4507446899922911E-010
  0.10720000000000002         -4.0590106276106042E-010
  0.10800000000000001         -4.8216097781050848E-010
  0.10880000000000001         -5.7494980998384904E-010
  0.10960000000000000         -6.8488248405884633E-010
  0.11040000000000003         -8.1227879977774364E-010
  0.11120000000000002         -9.5737673344586938E-010
  0.11200000000000002         -1.1206406913544242E-009
  0.11280000000000001         -1.3032128709511426E-009
  0.11360000000000001         -1.5074703707540493E-009
  0.11440000000000003         -1.7375353378312752E-009
  0.11520000000000002         -1.9995241018477827E-009
  0.11600000000000002         -2.3013579930619699E-009
  0.11680000000000001         -2.6521176366145482E-009
  0.11760000000000001         -3.0611162493698885E-009
  0.11840000000000001         -3.5370240070164982E-009
  0.11920000000000003         -4.0873868734081498E-009
  0.12000000000000002         -4.7187493912304035E-009
  0.12080000000000002         -5.4373541225061217E-009
  0.12160000000000001         -6.2501710473839012E-009
  0.12240000000000001         -7.1659100875365311E-009
  0.12320000000000000         -8.1957214348449270E-009
  0.12400000000000003         -9.3534593403887811E-009
  0.12480000000000002         -1.0655579529839088E-008
  0.12560000000000002         -1.2120842107776753E-008
  0.12640000000000001         -1.3769970053090219E-008
  0.12720000000000001         -1.5625321481138599E-008
  0.12800000000000000         -1.7710545918703247E-008
  0.12880000000000003         -2.0050183735520477E-008
  0.12960000000000002         -2.2669283339382673E-008
  0.13040000000000002         -2.5593209329599631E-008
  0.13120000000000004         -2.8847896516026594E-008
  0.13200000000000001         -3.2460668819567218E-008
  0.13280000000000003         -3.6461482721961147E-008
  0.13360000000000000         -4.0884234664417818E-008
  0.13440000000000002         -4.5767521328343719E-008
  0.13520000000000004         -5.1154504632222597E-008
  0.13600000000000001         -5.7091732230674097E-008
  0.13680000000000003         -6.3627361157614359E-008
  0.13760000000000000         -7.0809385022130300E-008
  0.13840000000000002         -7.8684664117645298E-008
  0.13919999999999999         -8.7298992923479091E-008
  0.14000000000000001         -9.6698279605789139E-008
  0.14080000000000004         -1.0693003105188836E-007
  0.14160000000000000         -1.1804454658204122E-007
  0.14240000000000003         -1.3009513111228443E-007
  0.14319999999999999         -1.4313724250314408E-007
  0.14400000000000002         -1.5722693547104427E-007
  0.14480000000000004         -1.7241919181287813E-007
  0.14560000000000001         -1.8876680485391262E-007
  0.14640000000000003         -2.0631998154385656E-007
  0.14720000000000000         -2.2512639930027945E-007
  0.14800000000000002         -2.4523117758690205E-007
  0.14880000000000004         -2.6667635211197194E-007
  0.14960000000000001         -2.8949952479706553E-007
  0.15040000000000003         -3.1373198794426571E-007
  0.15120000000000000         -3.3939701893359597E-007
  0.15200000000000002         -3.6650871493293380E-007
  0.15279999999999999         -3.9507156657236919E-007
  0.15360000000000001         -4.2508068531788012E-007
  0.15440000000000004         -4.5652225821868342E-007
  0.15520000000000000         -4.8937317842501216E-007
  0.15600000000000003         -5.2360019253683276E-007
  0.15679999999999999         -5.5915757002367172E-007
  0.15760000000000002         -5.9598505686153658E-007
  0.15840000000000004         -6.3400545968761435E-007
  0.15920000000000001         -6.7312311102796230E-007
  0.16000000000000003         -7.1322295980280614E-007
  0.16080000000000000         -7.5417023026602692E-007
  0.16160000000000002         -7.9581042200516094E-007
  0.16240000000000004         -8.3796953731507529E-007
  0.16320000000000001         -8.8045391066771117E-007
  0.16400000000000003         -9.2305015186866513E-007
  0.16480000000000000         -9.6552571449137758E-007
  0.16560000000000002         -1.0076287253468763E-006
  0.16639999999999999         -1.0490887234482216E-006
  0.16720000000000002         -1.0896166031670873E-006
  0.16800000000000004         -1.1289039321127348E-006
  0.16880000000000001         -1.1666226100714994E-006
  0.16960000000000003         -1.2024254374409793E-006
  0.17040000000000000         -1.2359465699773864E-006
  0.17120000000000002         -1.2668048157138401E-006
  0.17200000000000004         -1.2946072729391744E-006
  0.17280000000000001         -1.3189536502977717E-006
  0.17360000000000003         -1.3394409279499087E-006
  0.17440000000000000         -1.3556654039348359E-006
  0.17520000000000002         -1.3672253089680453E-006
  0.17600000000000005         -1.3737219433096470E-006
  0.17680000000000001         -1.3747604725722340E-006
  0.17760000000000004         -1.3699533383260132E-006
  0.17840000000000000         -1.3589236687039374E-006
  0.17920000000000003         -1.3413114174909424E-006
  0.17999999999999999         -1.3167793895263458E-006
  0.18080000000000002         -1.2850193797930842E-006
  0.18160000000000004         -1.2457572893254110E-006
  0.18240000000000001         -1.1987572179350536E-006
  0.18320000000000003         -1.1438240790084819E-006
  0.18400000000000000         -1.0808068964252016E-006
  0.18480000000000002         -1.0096010782945086E-006
  0.18560000000000004         -9.3015160018694587E-007
  0.18640000000000001         -8.4245652942627203E-007
  0.18720000000000003         -7.4657043569459347E-007
  0.18800000000000000         -6.4260791532433359E-007
  0.18880000000000002         -5.3074643346917583E-007
  0.18960000000000005         -4.1122919469671615E-007
  0.19040000000000001         -2.8436673460419115E-007
  0.19120000000000004         -1.5053814195198356E-007
  0.19200000000000000         -1.0191057775443824E-008
  0.19280000000000003          1.3615931493404787E-007
  0.19359999999999999          2.8793232331736363E-007
  0.19440000000000002          4.4448495373217156E-007
  0.19520000000000004          6.0511547417263500E-007
  0.19600000000000001          7.6906746926397318E-007
  0.19680000000000003          9.3553381930178148E-007
  0.19760000000000000          1.1036611340387026E-006
  0.19840000000000002          1.2725535043500713E-006
  0.19920000000000004          1.4412779592021252E-006
  0.20000000000000001          1.6088691836557700E-006
  0.20080000000000003          1.7743362832334242E-006
  0.20160000000000000          1.9366700598766329E-006
  0.20240000000000002          2.0948516521457350E-006
  0.20320000000000005          2.2478614027932053E-006
  0.20400000000000001          2.3946877263369970E-006
  0.20480000000000004          2.5343383640574757E-006
  0.20560000000000000          2.6658476599550340E-006
  0.20640000000000003          2.7882865651918110E-006
  0.20720000000000000          2.9007696866756305E-006
  0.20800000000000002          3.0024627903912915E-006
  0.20880000000000004          3.0925898499845061E-006
  0.20960000000000001          3.1704396405984880E-006
  0.21040000000000003          3.2353730148315663E-006
  0.21120000000000000          3.2868294965737732E-006
  0.21200000000000002          3.3243345569644589E-006
  0.21280000000000004          3.3475050713605015E-006
  0.21360000000000001          3.3560545489308424E-006
  0.21440000000000003          3.3497969980089692E-006
  0.21520000000000000          3.3286487450823188E-006
  0.21600000000000003          3.2926293442869792E-006
  0.21680000000000005          3.2418613500340143E-006
  0.21760000000000002          3.1765694075147621E-006
  0.21840000000000004          3.0970784337114310E-006
  0.21920000000000001          3.0038122531550471E-006
  0.22000000000000003          2.8972897325729718E-006
  0.22080000000000000          2.7781227345258230E-006
  0.22160000000000002          2.6470108878129395E-006
  0.22240000000000004          2.5047370399988722E-006
  0.22320000000000001          2.3521608909504721E-006
  0.22400000000000003          2.1902105800108984E-006
  0.22480000000000000          2.0198747279209783E-006
  0.22560000000000002          1.8421925460643251E-006
  0.22640000000000005          1.6582436046519433E-006
  0.22720000000000001          1.4691387377752108E-006
  0.22800000000000004          1.2760111758325365E-006
  0.22880000000000000          1.0800072232086677E-006
  0.22960000000000003          8.8227852756972425E-007
  0.23039999999999999          6.8397343966353219E-007
  0.23120000000000002          4.8622831627653795E-007
  0.23200000000000004          2.9015822633482458E-007
  0.23280000000000001          9.6847351471751608E-008
  0.23360000000000003         -9.2660336292738066E-008
  0.23440000000000000         -2.7736987817661429E-007
  0.23520000000000002         -4.5634314460585301E-007
  0.23600000000000004         -6.2870515193935717E-007
  0.23680000000000001         -7.9364934890691075E-007
  0.23760000000000003         -9.5044168801905471E-007
  0.23840000000000000         -1.0984234677380300E-006
  0.23920000000000002         -1.2370143167572678E-006
  0.24000000000000005         -1.3657136150868610E-006
  0.24080000000000001         -1.4841024267298053E-006
  0.24160000000000004         -1.5918444660201203E-006
  0.24240000000000000         -1.6886866660570377E-006
  0.24320000000000003         -1.7744594060786767E-006
  0.24399999999999999         -1.8490760567146936E-006
  0.24480000000000002         -1.9125318431179039E-006
  0.24560000000000004         -1.9649007754196646E-006
  0.24640000000000001         -2.0063330339326058E-006
  0.24720000000000003         -2.0370496258692583E-006
  0.24800000000000000         -2.0573365873133298E-006
  0.24880000000000002         -2.0675379346357659E-006
  0.24960000000000004         -2.0680499801528640E-006
  0.25040000000000001         -2.0593142835423350E-006
  0.25120000000000003         -2.0418128769961186E-006
  0.25200000000000000         -2.0160625808784971E-006
  0.25280000000000002         -1.9826118204946397E-006
  0.25360000000000005         -1.9420356238697423E-006
  0.25440000000000002         -1.8949301647808170E-006
  0.25520000000000004         -1.8419086700305343E-006
  0.25600000000000001         -1.7835941434896085E-006
  0.25680000000000003         -1.7206137954417500E-006
  0.25760000000000000         -1.6535921076865634E-006
  0.25840000000000002         -1.5831449218239868E-006
  0.25920000000000004         -1.5098739822860807E-006
  0.26000000000000001         -1.4343626162371947E-006
  0.26080000000000003         -1.3571715271609719E-006
  0.26160000000000000         -1.2788369758709450E-006
  0.26240000000000002         -1.1998683930869447E-006
  0.26320000000000005         -1.1207480383745860E-006
  0.26400000000000001         -1.0419294085295405E-006
  0.26480000000000004         -9.6383621439599665E-007
  0.26560000000000000         -8.8686078925093170E-007
  0.26640000000000003         -8.1136232665812713E-007
  0.26720000000000005         -7.3766472041825182E-007
  0.26800000000000002         -6.6605537085706601E-007
  0.26880000000000004         -5.9678467323465156E-007
  0.26960000000000001         -5.3006652933618170E-007
  0.27040000000000003         -4.6607985382252082E-007
  0.27120000000000000         -4.0497084796697891E-007
  0.27200000000000002         -3.4685544392232259E-007
  0.27280000000000004         -2.9182166372265783E-007
  0.27360000000000001         -2.3993166564650892E-007
  0.27440000000000003         -1.9122329319998244E-007
  0.27520000000000000         -1.4571099882232375E-007
  0.27600000000000002         -1.0338681022403762E-007
  0.27680000000000005         -6.4221126194752287E-008
  0.27760000000000001         -2.8163944065795476E-008
  0.27840000000000004          4.8534083418871887E-009
  0.27920000000000000          3.4916052271682929E-008
  0.28000000000000003          6.2122950339471572E-008
  0.28080000000000005          8.6584186931304430E-008
  0.28160000000000002          1.0841837649877561E-007
  0.28240000000000004          1.2775048219282326E-007
  0.28320000000000001          1.4471002884874906E-007
  0.28400000000000003          1.5942971742788359E-007
  0.28480000000000000          1.7204442315232882E-007
  0.28560000000000002          1.8269025758854696E-007
  0.28640000000000004          1.9150387231547938E-007
  0.28720000000000001          1.9862173417095619E-007
  0.28800000000000003          2.0417945734152454E-007
  0.28880000000000000          2.0831097913287522E-007
  0.28960000000000002          2.1114763626428612E-007
  0.29040000000000005          2.1281721274135634E-007
  0.29120000000000001          2.1344294509617612E-007
  0.29200000000000004          2.1314266973604390E-007
  0.29280000000000000          2.1202838240697020E-007
  0.29360000000000003          2.1020611029598513E-007
  0.29440000000000005          2.0777618203737802E-007
  0.29520000000000002          2.0483378193603130E-007
  0.29600000000000004          2.0146939050391666E-007
  0.29680000000000001          1.9776906867718935E-007
  0.29760000000000003          1.9381442939447879E-007
  0.29840000000000000          1.8968233916893951E-007
  0.29920000000000002          1.8544444913004554E-007
  0.30000000000000004          1.8116682554136787E-007
  0.30080000000000001          1.7690982190288196E-007
  0.30160000000000003          1.7272822105951491E-007
  0.30240000000000000          1.6867180363533407E-007
  0.30320000000000003          1.6478612963055639E-007
  0.30400000000000005          1.6111347633795958E-007
  0.30480000000000002          1.5769374783758394E-007
  0.30560000000000004          1.5456515711775864E-007
  0.30640000000000001          1.5176451029219606E-007
  0.30720000000000003          1.4932717817828234E-007
  0.30800000000000005          1.4728681207998306E-007
  0.30880000000000002          1.4567487482963770E-007
  0.30960000000000004          1.4452035657086526E-007
  0.31040000000000001          1.4384966107172659E-007
  0.31120000000000003          1.4368677625498094E-007
  0.31200000000000000          1.4405387105398404E-007
  0.31280000000000002          1.4497194911200495E-007
  0.31360000000000005          1.4646164459009015E-007
  0.31440000000000001          1.4854374796868797E-007
  0.31520000000000004          1.5123939078875992E-007