 -0.12000000000000000          0.0000000000000000     
 -0.11920000000000000          0.0000000000000000     
 -0.11839999999999999          0.0000000000000000     
 -0.11760000000000000          0.0000000000000000     
 -0.11680000000000000          0.0000000000000000     
 -0.11599999999999999          0.0000000000000000     
 -0.11520000000000000          0.0000000000000000     
 -0.11440000000000000          0.0000000000000000     
 -0.11359999999999999          0.0000000000000000     
 -0.11280000000000000          0.0000000000000000     
 -0.11199999999999999          0.0000000000000000     
 -0.11119999999999999          0.0000000000000000     
 -0.11040000000000000          0.0000000000000000     
 -0.10959999999999999          0.0000000000000000     
 -0.10879999999999999          0.0000000000000000     
 -0.10800000000000000          0.0000000000000000     
 -0.10719999999999999          0.0000000000000000     
 -0.10639999999999999         -5.6051938572992683E-045
 -0.10560000000000000         -5.7453237037317500E-044
 -0.10479999999999999         -3.5733110840282835E-043
 -0.10400000000000000         -1.6493282925103097E-042
 -0.10319999999999999         -5.7481263006603996E-042
 -0.10239999999999999         -1.5054149402241510E-041
 -0.10160000000000000         -2.7761123876738951E-041
 -0.10080000000000000         -2.5898798217651269E-041
  -9.9999999999999992E-002     3.3505046282006376E-041
  -9.9199999999999997E-002     1.8050405778660834E-040
  -9.8399999999999987E-002     2.9303533096421277E-040
  -9.7599999999999992E-002    -3.3945053999804369E-041
  -9.6799999999999997E-002    -1.0925755970524880E-039
  -9.6000000000000002E-002    -1.7252954848582867E-039
  -9.5199999999999993E-002     9.7791435020910982E-040
  -9.4399999999999998E-002     5.5219483207275882E-039
  -9.3599999999999989E-002    -4.8170167204582030E-039
  -9.2799999999999994E-002    -4.5293180945655249E-038
  -9.1999999999999998E-002    -4.1281737081174239E-038
  -9.1199999999999989E-002     2.3664861658289903E-037
  -9.0399999999999994E-002     8.1467932296706708E-037
  -8.9599999999999999E-002     4.9115919232697650E-037
  -8.8799999999999990E-002    -3.3485783248588627E-036
  -8.7999999999999995E-002    -1.0135984156031413E-035
  -8.7200000000000000E-002    -6.2771979480409278E-036
  -8.6399999999999991E-002     3.3401184102541960E-035
  -8.5599999999999996E-002     1.0012443028796726E-034
  -8.4799999999999986E-002     6.9140677868540183E-035
  -8.3999999999999991E-002    -2.7234987288228308E-034
  -8.3199999999999996E-002    -8.4515095904695800E-034
  -8.2400000000000001E-002    -6.5859348525123376E-034
  -8.1599999999999992E-002     1.9315805824658371E-033
  -8.0799999999999997E-002     6.4307233131137320E-033
  -7.9999999999999988E-002     5.8162431921129816E-033
  -7.9199999999999993E-002    -1.1873093914791962E-032
  -7.8399999999999997E-002    -4.5140869740008910E-032
  -7.7600000000000002E-002    -4.9362410847173483E-032
  -7.6799999999999993E-002     5.7855422184053805E-032
  -7.5999999999999984E-002     2.8811528756874680E-031
  -7.5199999999999989E-002     3.9191637582262824E-031
  -7.4399999999999994E-002    -1.5865543809545542E-031
  -7.3599999999999999E-002    -1.6053677448614986E-030
  -7.2800000000000004E-002    -2.7695912677690059E-030
  -7.1999999999999995E-002    -5.9375710186870585E-031
  -7.1199999999999986E-002     7.3550106008916367E-030
  -7.0399999999999990E-002     1.6759191102385295E-029
  -6.9599999999999995E-002     1.2077282490969767E-029
  -6.8800000000000000E-002    -2.4622659245657314E-029
  -6.7999999999999991E-002    -8.4399961749039998E-029
  -6.7199999999999996E-002    -1.0013495383942954E-028
  -6.6399999999999987E-002     3.3766417907483360E-029
  -6.5599999999999992E-002     3.4094660768289461E-028
  -6.4799999999999996E-002     5.8767604841088510E-028
  -6.4000000000000001E-002     2.6351500352891897E-028
  -6.3199999999999992E-002    -1.0092548909999596E-027
  -6.2399999999999990E-002    -2.6613251084221136E-027
  -6.1599999999999995E-002    -2.6682070338923925E-027
  -6.0799999999999993E-002     1.4120604425666278E-027
  -5.9999999999999991E-002     9.2925757741854585E-027
  -5.9199999999999996E-002     1.4595914306291326E-026
  -5.8399999999999994E-002     6.0138737924185948E-027
  -5.7599999999999991E-002    -2.2791710725375164E-026
  -5.6799999999999989E-002    -5.7666927788965439E-026
  -5.5999999999999994E-002    -5.7874367392159454E-026
  -5.5199999999999999E-002     2.0462614310149681E-026
  -5.4399999999999990E-002     1.6829472270323557E-025
  -5.3599999999999995E-002     2.7288453927108915E-025
  -5.2799999999999986E-002     1.4646898756374309E-025
  -5.1999999999999991E-002    -3.1410811755093343E-025
  -5.1199999999999996E-002    -9.0032971214190905E-025
  -5.0399999999999986E-002    -1.0163409773702952E-024
  -4.9599999999999991E-002    -1.0573752136254469E-026
  -4.8799999999999996E-002     2.0781935097302799E-024
  -4.7999999999999987E-002     3.8603350159097136E-024
  -4.7199999999999992E-002     2.9096337739562747E-024
  -4.6399999999999997E-002    -2.3768321881893457E-024
  -4.5599999999999988E-002    -1.0107132831154937E-023
  -4.4799999999999993E-002    -1.3785005108547936E-023
  -4.3999999999999997E-002    -5.4770754644457789E-024
  -4.3199999999999988E-002     1.6531599477195848E-023
  -4.2399999999999993E-002     4.0305244986908189E-023
  -4.1599999999999998E-002     4.1545785558353406E-023
  -4.0799999999999989E-002    -4.6420026929664677E-025
  -3.9999999999999994E-002    -7.7560614874712628E-023
  -3.9199999999999985E-002    -1.3777922715340862E-022
  -3.8399999999999990E-002    -1.0498624145804771E-022
  -3.7599999999999995E-002     6.0819711666699920E-023
  -3.6799999999999986E-002     2.9456179796922933E-022
  -3.5999999999999990E-002     4.1330280749732785E-022
  -3.5199999999999995E-002     2.1371738864890957E-022
  -3.4399999999999986E-002    -3.3994909316685025E-022
  -3.3599999999999991E-002    -9.6228570221193293E-022
  -3.2799999999999996E-002    -1.1032825352255570E-021
  -3.1999999999999987E-002    -3.0060419482418364E-022
  -3.1199999999999992E-002     1.3203868508393787E-021
  -3.0399999999999996E-002     2.7847944089360491E-021
  -2.9599999999999987E-002     2.6436506584674367E-021
  -2.8799999999999992E-002     2.4439671305659579E-023
  -2.7999999999999997E-002    -4.2187830866306139E-021
  -2.7199999999999988E-002    -7.2613977371546509E-021
  -2.6399999999999993E-002    -5.7144690174846209E-021
  -2.5599999999999998E-002     1.6700938126159018E-021
  -2.4799999999999989E-002     1.1718513449467456E-020
  -2.3999999999999994E-002     1.7239805905558968E-020
  -2.3199999999999985E-002     1.1160237621828054E-020
  -2.2399999999999989E-002    -7.3372689401365167E-021
  -2.1599999999999994E-002    -2.9008742637268781E-020
  -2.0799999999999985E-002    -3.7487667033364093E-020
  -1.9999999999999990E-002    -1.9630942718379687E-020
  -1.9199999999999995E-002     2.2103435652501838E-020
  -1.8399999999999986E-002     6.4753882624456029E-020
  -1.7599999999999991E-002     7.4761818071112935E-020
  -1.6799999999999995E-002     3.0713206450571114E-020
  -1.5999999999999986E-002    -5.4555068789103977E-020
  -1.5199999999999991E-002    -1.3080921762049061E-019
  -1.4399999999999996E-002    -1.3607636771910444E-019
  -1.3599999999999987E-002    -4.1105115260166014E-020
  -1.2799999999999992E-002     1.1631467391839169E-019
  -1.1999999999999997E-002     2.3814431607703926E-019
  -1.1199999999999988E-002     2.2243688002769325E-019
  -1.0399999999999993E-002     4.0637855149301587E-020
  -9.5999999999999835E-003    -2.1875150605543395E-019
  -8.7999999999999884E-003    -3.8486739008379907E-019
  -7.9999999999999932E-003    -3.1312278438280720E-019
  -7.1999999999999842E-003    -2.9050041891172478E-021
  -6.3999999999999890E-003     3.6645145451622474E-019
  -5.5999999999999939E-003     5.3199821243375924E-019
  -4.7999999999999848E-003     3.3356164183716824E-019
  -3.9999999999999897E-003    -1.3663299564786727E-019
  -3.1999999999999945E-003    -5.5222195123006822E-019
  -2.3999999999999855E-003    -5.6740004338616858E-019
  -1.5999999999999903E-003    -1.0155033362728123E-019
  -7.9999999999999516E-004     5.2630627924120529E-019
   1.3877787807814457E-017     7.6946734233580210E-019
   8.0000000000000904E-004     2.7402934975415027E-019
   1.6000000000000042E-003    -7.3920835174557636E-019
   2.4000000000000132E-003    -1.4747182755748516E-018
   3.2000000000000084E-003    -1.0705480055116682E-018
   4.0000000000000036E-003     6.5087192467344858E-019
   4.8000000000000126E-003     2.7494706011486840E-018
   5.6000000000000216E-003     3.5324218663485013E-018
   6.4000000000000168E-003     1.6933136771390603E-018
   7.2000000000000119E-003    -2.4458163205932240E-018
   8.0000000000000071E-003    -6.5678740342654498E-018
   8.8000000000000023E-003    -7.4614693917906664E-018
   9.5999999999999974E-003    -3.2019255749156956E-018
   1.0400000000000020E-002     4.9437901011206730E-018
   1.1200000000000015E-002     1.2437787129729068E-017
   1.2000000000000011E-002     1.3814836054476721E-017
   1.2800000000000006E-002     6.3719029530327556E-018
   1.3600000000000001E-002    -7.1735054866844185E-018
   1.4400000000000024E-002    -1.9270016093647584E-017
   1.5200000000000019E-002    -2.1710389152219903E-017
   1.6000000000000014E-002    -1.1177042280648209E-017
   1.6800000000000009E-002     7.5675321442934407E-018
   1.7600000000000005E-002     2.3624458619888007E-017
   1.8400000000000000E-002     2.6598930619457240E-017
   1.9200000000000023E-002     1.3939042186535234E-017
   2.0000000000000018E-002    -6.3197314310281173E-018
   2.0800000000000013E-002    -2.0265708286228689E-017
   2.1600000000000008E-002    -1.8034820372146650E-017
   2.2400000000000003E-002    -2.2387126290864848E-018
   2.3199999999999998E-002     1.2087486066480212E-017
   2.4000000000000021E-002     7.9378096193354529E-018
   2.4800000000000016E-002    -1.8653010494215705E-017
   2.5600000000000012E-002    -5.0050994873521845E-017
   2.6400000000000007E-002    -5.3942866420694040E-017
   2.7200000000000002E-002    -5.3213223637250815E-018
   2.8000000000000025E-002     8.8630662247048104E-017
   2.8800000000000020E-002     1.7895443747653915E-016
   2.9600000000000015E-002     1.9331664872084426E-016
   3.0400000000000010E-002     7.8988992087570810E-017
   3.1200000000000006E-002    -1.5122222144140873E-016
   3.2000000000000001E-002    -4.0033352596793479E-016
   3.2800000000000024E-002    -5.1715326602859370E-016
   3.3600000000000019E-002    -3.7141502705528493E-016
   3.4400000000000014E-002     5.8229293193886678E-017
   3.5200000000000009E-002     6.3225821435731588E-016
   3.6000000000000004E-002     1.0755074851610574E-015
   3.6799999999999999E-002     1.0880054562977946E-015
   3.7600000000000022E-002     5.0482623672852426E-016
   3.8400000000000017E-002    -5.6796814896291846E-016
   3.9200000000000013E-002    -1.7215682072730006E-015
   4.0000000000000008E-002    -2.3651815335629708E-015
   4.0800000000000003E-002    -1.9823620284360743E-015
   4.1600000000000026E-002    -4.3019641367721400E-016
   4.2400000000000021E-002     1.8630417677057819E-015
   4.3200000000000016E-002     3.9396713633912082E-015
   4.4000000000000011E-002     4.6500474030672888E-015
   4.4800000000000006E-002     3.2013493774446034E-015
   4.5600000000000002E-002    -3.1066632700401894E-016
   4.6400000000000025E-002    -4.6829300691126480E-015
   4.7200000000000020E-002    -7.9187949803666800E-015
   4.8000000000000015E-002    -8.0648598828900533E-015
   4.8800000000000010E-002    -4.2614845910415346E-015
   4.9600000000000005E-002     2.5185029673454717E-015
   5.0400000000000000E-002     9.5423530053128855E-015
   5.1200000000000023E-002     1.3371021547999365E-014
   5.2000000000000018E-002     1.1539209461542375E-014
   5.2800000000000014E-002     4.0525490915246844E-015
   5.3600000000000009E-002    -6.1927417336379680E-015
   5.4400000000000004E-002    -1.4527661978134057E-014
   5.5199999999999999E-002    -1.6808233814112269E-014
   5.6000000000000022E-002    -1.1752722750622661E-014
   5.6800000000000017E-002    -1.9287848651816349E-015
   5.7600000000000012E-002     7.4329165530308793E-015
   5.8400000000000007E-002     1.1417632281524124E-014
   5.9200000000000003E-002     8.6028503182397804E-015
   6.0000000000000026E-002     2.3929993661002229E-015
   6.0800000000000021E-002    -7.4250167002483120E-016
   6.1600000000000016E-002     4.3932799530189883E-015
   6.2400000000000011E-002     1.7169439156007604E-014
   6.3200000000000006E-002     2.9430908529476038E-014
   6.4000000000000001E-002     2.8623584486789019E-014
   6.4800000000000024E-002     5.0586306858343456E-015
   6.5600000000000019E-002    -4.0199448452090877E-014
   6.6400000000000015E-002    -9.1619576237777361E-014
   6.7200000000000010E-002    -1.2307864417308162E-013
   6.8000000000000005E-002    -1.0899887627679669E-013
   6.8800000000000000E-002    -3.8144939545339471E-014
   6.9600000000000023E-002     7.6892471881882807E-014
   7.0400000000000018E-002     2.0027280886198567E-013
   7.1200000000000013E-002     2.8467216106088655E-013
   7.2000000000000008E-002     2.8961010564536316E-013
   7.2800000000000004E-002     1.9799121381020718E-013
   7.3600000000000027E-002     2.3160106780517956E-014
   7.4400000000000022E-002    -1.9629069691277229E-013
   7.5200000000000017E-002    -4.1015113397616099E-013
   7.6000000000000012E-002    -5.7055879118528274E-013
   7.6800000000000007E-002    -6.3901298532134665E-013
   7.7600000000000002E-002    -5.8492793941766763E-013
   7.8400000000000025E-002    -3.8152350744814767E-013
   7.9200000000000020E-002    -8.7423761264103506E-015
   8.0000000000000016E-002     5.3014667308892705E-013
   8.0800000000000011E-002     1.1811040426940034E-012
   8.1600000000000006E-002     1.8150380287282331E-012
   8.2400000000000001E-002     2.2265557453327034E-012
   8.3200000000000024E-002     2.1709821440563104E-012
   8.4000000000000019E-002     1.4397424225043309E-012
   8.4800000000000014E-002    -4.5370730284745309E-014
   8.5600000000000009E-002    -2.1529455735552760E-012
   8.6400000000000005E-002    -4.5126888337243543E-012
   8.7200000000000027E-002    -6.5567000613608872E-012
   8.8000000000000023E-002    -7.6275825933169727E-012
   8.8800000000000018E-002    -7.1265571569001374E-012
   8.9600000000000013E-002    -4.6632732397799970E-012
   9.0400000000000008E-002    -1.7347864952280828E-013
   9.1200000000000003E-002     6.0133621172797636E-012
   9.2000000000000026E-002     1.3157780420769427E-011
   9.2800000000000021E-002     2.0139686793263500E-011
   9.3600000000000017E-002     2.5533571784697173E-011
   9.4400000000000012E-002     2.7741175676054830E-011
   9.5200000000000007E-002     2.5196475114674932E-011
   9.6000000000000002E-002     1.6640994138228393E-011
   9.6800000000000025E-002     1.4301000704833311E-012
   9.7600000000000020E-002    -2.0212161805366335E-011
   9.8400000000000015E-002    -4.7095584376766197E-011
   9.9200000000000010E-002    -7.7210939031235881E-011
  0.10000000000000001         -1.0814235618106238E-010
  0.10080000000000003         -1.3767036122214193E-010
  0.10160000000000002         -1.6440566963371595E-010
  0.10240000000000002         -1.8826014358541698E-010
  0.10320000000000001         -2.1060243826642733E-010
  0.10400000000000001         -2.3405091753581075E-010
  0.10480000000000000         -2.6198310187908191E-010
  0.10560000000000003         -2.9793395528443511E-010
  0.10640000000000002         -3.4507452451038034E-010
  0.10720000000000002         -4.0590109051663603E-010
  0.10800000000000001         -4.8216092229935725E-010
  0.10880000000000001         -5.7494964345039534E-010
  0.10960000000000000         -6.8488226201424141E-010
  0.11040000000000003         -8.1227846671083626E-010
  0.11120000000000002         -9.5737651140126445E-010
  0.11200000000000002         -1.1206406913544242E-009
  0.11280000000000001         -1.3032129819734450E-009
  0.11360000000000001         -1.5074704817763518E-009
  0.11440000000000003         -1.7375355598758802E-009
  0.11520000000000002         -1.9995241018477827E-009
  0.11600000000000002         -2.3013577710173649E-009
  0.11680000000000001         -2.6521169704807335E-009
  0.11760000000000001         -3.0611153611914688E-009
  0.11840000000000001         -3.5370231188380785E-009
  0.11920000000000003         -4.0873859852297301E-009
  0.12000000000000002         -4.7187493912304035E-009
  0.12080000000000002         -5.4373545665953316E-009
  0.12160000000000001         -6.2501719355623209E-009
  0.12240000000000001         -7.1659118638933705E-009
  0.12320000000000000         -8.1957240993801861E-009
  0.12400000000000003         -9.3534620049240402E-009
  0.12480000000000002         -1.0655582194374347E-008
  0.12560000000000002         -1.2120844772312012E-008
  0.12640000000000001         -1.3769970941268639E-008
  0.12720000000000001         -1.5625321481138599E-008
  0.12800000000000000         -1.7710545918703247E-008
  0.12880000000000003         -2.0050185511877316E-008
  0.12960000000000002         -2.2669285115739513E-008
  0.13040000000000002         -2.5593211105956470E-008
  0.13120000000000004         -2.8847898292383434E-008
  0.13200000000000001         -3.2460668819567218E-008
  0.13280000000000003         -3.6461482721961147E-008
  0.13360000000000000         -4.0884231111704139E-008
  0.13440000000000002         -4.5767517775630040E-008
  0.13520000000000004         -5.1154497526795240E-008
  0.13600000000000001         -5.7091725125246739E-008
  0.13680000000000003         -6.3627354052187002E-008
  0.13760000000000000         -7.0809392127557658E-008
  0.13840000000000002         -7.8684671223072655E-008
  0.13919999999999999         -8.7299000028906448E-008
  0.14000000000000001         -9.6698286711216497E-008
  0.14080000000000004         -1.0693003815731572E-007
  0.14160000000000000         -1.1804455368746858E-007
  0.14240000000000003         -1.3009514532313915E-007
  0.14319999999999999         -1.4313725671399880E-007
  0.14400000000000002         -1.5722694968189899E-007
  0.14480000000000004         -1.7241920602373284E-007
  0.14560000000000001         -1.8876681906476733E-007
  0.14640000000000003         -2.0631999575471127E-007
  0.14720000000000000         -2.2512641351113416E-007
  0.14800000000000002         -2.4523120600861148E-007
  0.14880000000000004         -2.6667638053368137E-007
  0.14960000000000001         -2.8949949637535610E-007
  0.15040000000000003         -3.1373193110084685E-007
  0.15120000000000000         -3.3939699051188654E-007
  0.15200000000000002         -3.6650868651122437E-007
  0.15279999999999999         -3.9507153815065976E-007
  0.15360000000000001         -4.2508065689617069E-007
  0.15440000000000004         -4.5652225821868342E-007
  0.15520000000000000         -4.8937323526843102E-007
  0.15600000000000003         -5.2360024938025163E-007
  0.15679999999999999         -5.5915762686709058E-007
  0.15760000000000002         -5.9598511370495544E-007
  0.15840000000000004         -6.3400551653103321E-007
  0.15920000000000001         -6.7312311102796230E-007
  0.16000000000000003         -7.1322290295938728E-007
  0.16080000000000000         -7.5417011657918920E-007
  0.16160000000000002         -7.9581036516174208E-007
  0.16240000000000004         -8.3796953731507529E-007
  0.16320000000000001         -8.8045396751113003E-007
  0.16400000000000003         -9.2305026555550285E-007
  0.16480000000000000         -9.6552582817821531E-007
  0.16560000000000002         -1.0076288390337140E-006
  0.16639999999999999         -1.0490888371350593E-006
  0.16720000000000002         -1.0896166031670873E-006
  0.16800000000000004         -1.1289038184258970E-006
  0.16880000000000001         -1.1666223826978239E-006
  0.16960000000000003         -1.2024250963804661E-006
  0.17040000000000000         -1.2359463426037109E-006
  0.17120000000000002         -1.2668047020270023E-006
  0.17200000000000004         -1.2946072729391744E-006
  0.17280000000000001         -1.3189539913582848E-006
  0.17360000000000003         -1.3394413826972595E-006
  0.17440000000000000         -1.3556658586821868E-006
  0.17520000000000002         -1.3672257637153962E-006
  0.17600000000000005         -1.3737222843701602E-006
  0.17680000000000001         -1.3747606999459094E-006
  0.17760000000000004         -1.3699533383260132E-006
  0.17840000000000000         -1.3589234413302620E-006
  0.17920000000000003         -1.3413110764304292E-006
  0.17999999999999999         -1.3167789347789949E-006
  0.18080000000000002         -1.2850188113588956E-006
  0.18160000000000004         -1.2457568345780601E-006
  0.18240000000000001         -1.1987568768745405E-006
  0.18320000000000003         -1.1438240790084819E-006
  0.18400000000000000         -1.0808071237988770E-006
  0.18480000000000002         -1.0096013056681841E-006
  0.18560000000000004         -9.3015177071720245E-007
  0.18640000000000001         -8.4245652942627203E-007
  0.18720000000000003         -7.4657015147749917E-007
  0.18800000000000000         -6.4260740373356384E-007
  0.18880000000000002         -5.3074586503498722E-007
  0.18960000000000005         -4.1122868310594640E-007
  0.19040000000000001         -2.8436642196538742E-007
  0.19120000000000004         -1.5053807089770999E-007
  0.19200000000000000         -1.0191228305700406E-008
  0.19280000000000003          1.3615895966267999E-007
  0.19359999999999999          2.8793189699172217E-007
  0.19440000000000002          4.4448452740653011E-007
  0.19520000000000004          6.0511518995554070E-007
  0.19600000000000001          7.6906741242055432E-007
  0.19680000000000003          9.3553410351887578E-007
  0.19760000000000000          1.1036617024728912E-006
  0.19840000000000002          1.2725544138447731E-006
  0.19920000000000004          1.4412788686968270E-006
  0.20000000000000001          1.6088699794636341E-006
  0.20080000000000003          1.7743367379807751E-006
  0.20160000000000000          1.9366702872503083E-006
  0.20240000000000002          2.0948516521457350E-006
  0.20320000000000005          2.2478609480458545E-006
  0.20400000000000001          2.3946870442159707E-006
  0.20480000000000004          2.5343374545627739E-006
  0.20560000000000000          2.6658469778340077E-006
  0.20640000000000003          2.7882861104444601E-006
  0.20720000000000000          2.9007694593019551E-006
  0.20800000000000002          3.0024625630176160E-006
  0.20880000000000004          3.0925896226108307E-006
  0.20960000000000001          3.1704394132248126E-006
  0.21040000000000003          3.2353725600842154E-006
  0.21120000000000000          3.2868288144527469E-006
  0.21200000000000002          3.3243336474697571E-006
  0.21280000000000004          3.3475041618657997E-006
  0.21360000000000001          3.3560536394361407E-006
  0.21440000000000003          3.3497963158879429E-006
  0.21520000000000000          3.3286482903349679E-006
  0.21600000000000003          3.2926291169133037E-006
  0.21680000000000005          3.2418613500340143E-006
  0.21760000000000002          3.1765696348884376E-006
  0.21840000000000004          3.0970788884587819E-006
  0.21920000000000001          3.0038127079023980E-006
  0.22000000000000003          2.8972901873203227E-006
  0.22080000000000000          2.7781225071521476E-006
  0.22160000000000002          2.6470099783182377E-006
  0.22240000000000004          2.5047356757568195E-006
  0.22320000000000001          2.3521588445873931E-006
  0.22400000000000003          2.1902085336478194E-006
  0.22480000000000000          2.0198731363052502E-006
  0.22560000000000002          1.8421915228827856E-006
  0.22640000000000005          1.6582433772782679E-006
  0.22720000000000001          1.4691395335830748E-006
  0.22800000000000004          1.2760126537614269E-006
  0.22880000000000000          1.0800092695717467E-006
  0.22960000000000003          8.8228074446305982E-007
  0.23039999999999999          6.8397554287003004E-007
  0.23120000000000002          4.8623002157910378E-007
  0.23200000000000004          2.9015922109465464E-007
  0.23280000000000001          9.6847571739999694E-008
  0.23360000000000003         -9.2660762618379522E-008
  0.23440000000000000         -2.7737064556276891E-007
  0.23520000000000002         -4.5634376988346048E-007
  0.23600000000000004         -6.2870526562619489E-007
  0.23680000000000001         -7.9364872362930328E-007
  0.23760000000000003         -9.5044032377700205E-007
  0.23840000000000000         -1.0984216487486265E-006
  0.23920000000000002         -1.2370123840810265E-006
  0.24000000000000005         -1.3657119097842951E-006
  0.24080000000000001         -1.4841012898614281E-006
  0.24160000000000004         -1.5918440112727694E-006
  0.24240000000000000         -1.6886868934307131E-006
  0.24320000000000003         -1.7744603155733785E-006
  0.24399999999999999         -1.8490774209567462E-006
  0.24480000000000002         -1.9125332073599566E-006
  0.24560000000000004         -1.9649019122880418E-006
  0.24640000000000001         -2.0063339434273075E-006
  0.24720000000000003         -2.0370500806166092E-006
  0.24800000000000000         -2.0573363599396544E-006
  0.24880000000000002         -2.0675372525147395E-006
  0.24960000000000004         -2.0680492980318377E-006
  0.25040000000000001         -2.0593140561686596E-006
  0.25120000000000003         -2.0418128769961186E-006
  0.25200000000000000         -2.0160630356258480E-006
  0.25280000000000002         -1.9826125026156660E-006
  0.25360000000000005         -1.9420360786170932E-006
  0.25440000000000002         -1.8949303921544924E-006
  0.25520000000000004         -1.8419084426568588E-006
  0.25600000000000001         -1.7835936887422577E-006
  0.25680000000000003         -1.7206132270075614E-006
  0.25760000000000000         -1.6535913118786993E-006
  0.25840000000000002         -1.5831440123292850E-006
  0.25920000000000004         -1.5098729591045412E-006
  0.26000000000000001         -1.4343614793688175E-006
  0.26080000000000003         -1.3571706176662701E-006
  0.26160000000000000         -1.2788365211235941E-006
  0.26240000000000002         -1.1998687341474579E-006
  0.26320000000000005         -1.1207490615561255E-006
  0.26400000000000001         -1.0419308864584309E-006
  0.26480000000000004         -9.6383769232488703E-007
  0.26560000000000000         -8.8686192611930892E-007
  0.26640000000000003         -8.1136278140547802E-007
  0.26720000000000005         -7.3766443620115751E-007
  0.26800000000000002         -6.6605451820578310E-007
  0.26880000000000004         -5.9678342267943663E-007
  0.26960000000000001         -5.3006505140729132E-007
  0.27040000000000003         -4.6607840431533987E-007
  0.27120000000000000         -4.0496965425518283E-007
  0.27200000000000002         -3.4685473337958683E-007
  0.27280000000000004         -2.9182160687923897E-007
  0.27360000000000001         -2.3993229092411639E-007
  0.27440000000000003         -1.9122435901408608E-007
  0.27520000000000000         -1.4571213569070096E-007
  0.27600000000000002         -1.0338763445361110E-007
  0.27680000000000005         -6.4221453044410737E-008
  0.27760000000000001         -2.8163897880517652E-008
  0.27840000000000004          4.8534349872397797E-009
  0.27920000000000000          3.4915608182473079E-008
  0.28000000000000003          6.2121777943957568E-008
  0.28080000000000005          8.6582382152755599E-008
  0.28160000000000002          1.0841639408454284E-007
  0.28240000000000004          1.2774889057709515E-007
  0.28320000000000001          1.4470928988430387E-007
  0.28400000000000003          1.5943000164497789E-007
  0.28480000000000000          1.7204554580985132E-007
  0.28560000000000002          1.8269186341512977E-007
  0.28640000000000004          1.9150557761804521E-007
  0.28720000000000001          1.9862325473241071E-007
  0.28800000000000003          2.0418056578819233E-007
  0.28880000000000000          2.0831153335620911E-007
  0.28960000000000002          2.1114757942086726E-007
  0.29040000000000005          2.1281664430716773E-007
  0.29120000000000001          2.1344212086660264E-007
  0.29200000000000004          2.1314203024758172E-007
  0.29280000000000000          2.1202832556355133E-007
  0.29360000000000003          2.1020680662786617E-007
  0.29440000000000005          2.0777750364686653E-007
  0.29520000000000002          2.0483527407577640E-007
  0.29600000000000004          2.0147048473972973E-007
  0.29680000000000001          1.9776935289428366E-007
  0.29760000000000003          1.9381383253858075E-007
  0.29840000000000000          1.8968106019201514E-007
  0.29920000000000002          1.8544284330346272E-007
  0.30000000000000004          1.8116517708222091E-007
  0.30080000000000001          1.7690824449800857E-007
  0.30160000000000003          1.7272667207635095E-007
  0.30240000000000000          1.6867018359789654E-007
  0.30320000000000003          1.6478442432799056E-007
  0.30400000000000005          1.6111178524624847E-007
  0.30480000000000002          1.5769226990869356E-007
  0.30560000000000004          1.5456404867109086E-007
  0.30640000000000001          1.5176382817116973E-007
  0.30720000000000003          1.4932692238289746E-007
  0.30800000000000005          1.4728692576682079E-007
  0.30880000000000002          1.4567535799869802E-007
  0.30960000000000004          1.4452120922214817E-007
  0.31040000000000001          1.4385084057266795E-007
  0.31120000000000003          1.4368816891874303E-007
  0.31200000000000000          1.4405522108518198E-007
  0.31280000000000002          1.4497298650439916E-007
  0.31360000000000005          1.4646215618085989E-007
  0.31440000000000001          1.4854366270355968E-007
  0.31520000000000004          1.5123880814371660E-007