 -0.39999999999999997          0.0000000000000000     
 -0.39939999999999998          0.0000000000000000     
 -0.39879999999999999          0.0000000000000000     
 -0.39819999999999994          0.0000000000000000     
 -0.39759999999999995          0.0000000000000000     
 -0.39699999999999996          0.0000000000000000     
 -0.39639999999999997          0.0000000000000000     
 -0.39579999999999999          0.0000000000000000     
 -0.39519999999999994          0.0000000000000000     
 -0.39459999999999995          0.0000000000000000     
 -0.39399999999999996          0.0000000000000000     
 -0.39339999999999997          0.0000000000000000     
 -0.39279999999999998          0.0000000000000000     
 -0.39219999999999999          0.0000000000000000     
 -0.39159999999999995          0.0000000000000000     
 -0.39099999999999996          0.0000000000000000     
 -0.39039999999999997          0.0000000000000000     
 -0.38979999999999998          0.0000000000000000     
 -0.38919999999999999          0.0000000000000000     
 -0.38859999999999995          0.0000000000000000     
 -0.38799999999999996          0.0000000000000000     
 -0.38739999999999997          0.0000000000000000     
 -0.38679999999999998          0.0000000000000000     
 -0.38619999999999999          0.0000000000000000     
 -0.38559999999999994          0.0000000000000000     
 -0.38499999999999995          0.0000000000000000     
 -0.38439999999999996          0.0000000000000000     
 -0.38379999999999997          0.0000000000000000     
 -0.38319999999999999          0.0000000000000000     
 -0.38259999999999994          0.0000000000000000     
 -0.38199999999999995          0.0000000000000000     
 -0.38139999999999996          0.0000000000000000     
 -0.38079999999999997          0.0000000000000000     
 -0.38019999999999998          0.0000000000000000     
 -0.37959999999999999          0.0000000000000000     
 -0.37899999999999995          0.0000000000000000     
 -0.37839999999999996          0.0000000000000000     
 -0.37779999999999997          0.0000000000000000     
 -0.37719999999999998          0.0000000000000000     
 -0.37659999999999999          0.0000000000000000     
 -0.37599999999999995          0.0000000000000000     
 -0.37539999999999996          0.0000000000000000     
 -0.37479999999999997          0.0000000000000000     
 -0.37419999999999998          0.0000000000000000     
 -0.37359999999999999          0.0000000000000000     
 -0.37300000000000000          0.0000000000000000     
 -0.37239999999999995          0.0000000000000000     
 -0.37179999999999996          0.0000000000000000     
 -0.37119999999999997          0.0000000000000000     
 -0.37059999999999998          0.0000000000000000     
 -0.37000000000000000          0.0000000000000000     
 -0.36939999999999995          0.0000000000000000     
 -0.36879999999999996          0.0000000000000000     
 -0.36819999999999997          0.0000000000000000     
 -0.36759999999999998          0.0000000000000000     
 -0.36699999999999999          0.0000000000000000     
 -0.36639999999999995          0.0000000000000000     
 -0.36579999999999996          0.0000000000000000     
 -0.36519999999999997          0.0000000000000000     
 -0.36459999999999998          0.0000000000000000     
 -0.36399999999999999          0.0000000000000000     
 -0.36339999999999995          0.0000000000000000     
 -0.36279999999999996          0.0000000000000000     
 -0.36219999999999997          0.0000000000000000     
 -0.36159999999999998          0.0000000000000000     
 -0.36099999999999999          0.0000000000000000     
 -0.36039999999999994          0.0000000000000000     
 -0.35979999999999995          0.0000000000000000     
 -0.35919999999999996          0.0000000000000000     
 -0.35859999999999997          0.0000000000000000     
 -0.35799999999999998          0.0000000000000000     
 -0.35739999999999994          0.0000000000000000     
 -0.35679999999999995          0.0000000000000000     
 -0.35619999999999996          0.0000000000000000     
 -0.35559999999999997          0.0000000000000000     
 -0.35499999999999998          0.0000000000000000     
 -0.35439999999999999          0.0000000000000000     
 -0.35379999999999995          0.0000000000000000     
 -0.35319999999999996          0.0000000000000000     
 -0.35259999999999997          0.0000000000000000     
 -0.35199999999999998          0.0000000000000000     
 -0.35139999999999999          0.0000000000000000     
 -0.35080000000000000          0.0000000000000000     
 -0.35019999999999996          0.0000000000000000     
 -0.34959999999999997          0.0000000000000000     
 -0.34899999999999998          0.0000000000000000     
 -0.34839999999999999          0.0000000000000000     
 -0.34780000000000000          0.0000000000000000     
 -0.34719999999999995          0.0000000000000000     
 -0.34659999999999996          0.0000000000000000     
 -0.34599999999999997          0.0000000000000000     
 -0.34539999999999998          0.0000000000000000     
 -0.34480000000000000          0.0000000000000000     
 -0.34419999999999995          0.0000000000000000     
 -0.34359999999999996          0.0000000000000000     
 -0.34299999999999997          0.0000000000000000     
 -0.34239999999999998          0.0000000000000000     
 -0.34179999999999999          0.0000000000000000     
 -0.34119999999999995          0.0000000000000000     
 -0.34059999999999996          0.0000000000000000     
 -0.33999999999999997          0.0000000000000000     
 -0.33939999999999998          0.0000000000000000     
 -0.33879999999999999          0.0000000000000000     
 -0.33819999999999995          0.0000000000000000     
 -0.33759999999999996          0.0000000000000000     
 -0.33699999999999997          0.0000000000000000     
 -0.33639999999999998          0.0000000000000000     
 -0.33579999999999999          0.0000000000000000     
 -0.33519999999999994          0.0000000000000000     
 -0.33459999999999995          0.0000000000000000     
 -0.33399999999999996          0.0000000000000000     
 -0.33339999999999997          0.0000000000000000     
 -0.33279999999999998          0.0000000000000000     
 -0.33219999999999994          0.0000000000000000     
 -0.33160000000000001          0.0000000000000000     
 -0.33099999999999996          0.0000000000000000     
 -0.33039999999999997          0.0000000000000000     
 -0.32979999999999998          0.0000000000000000     
 -0.32919999999999999          0.0000000000000000     
 -0.32860000000000000          0.0000000000000000     
 -0.32799999999999996          0.0000000000000000     
 -0.32739999999999997          0.0000000000000000     
 -0.32679999999999998          0.0000000000000000     
 -0.32619999999999999          0.0000000000000000     
 -0.32560000000000000          0.0000000000000000     
 -0.32499999999999996          0.0000000000000000     
 -0.32439999999999997          0.0000000000000000     
 -0.32379999999999998          0.0000000000000000     
 -0.32319999999999999          0.0000000000000000     
 -0.32260000000000000          0.0000000000000000     
 -0.32199999999999995          0.0000000000000000     
 -0.32139999999999996          0.0000000000000000     
 -0.32079999999999997          0.0000000000000000     
 -0.32019999999999998          0.0000000000000000     
 -0.31960000000000000          0.0000000000000000     
 -0.31899999999999995          0.0000000000000000     
 -0.31839999999999996          0.0000000000000000     
 -0.31779999999999997          0.0000000000000000     
 -0.31719999999999998          0.0000000000000000     
 -0.31659999999999999          0.0000000000000000     
 -0.31599999999999995          0.0000000000000000     
 -0.31539999999999996          0.0000000000000000     
 -0.31479999999999997          0.0000000000000000     
 -0.31419999999999998          0.0000000000000000     
 -0.31359999999999999          0.0000000000000000     
 -0.31299999999999994          0.0000000000000000     
 -0.31239999999999996          0.0000000000000000     
 -0.31179999999999997          0.0000000000000000     
 -0.31119999999999998          0.0000000000000000     
 -0.31059999999999999          0.0000000000000000     
 -0.30999999999999994          0.0000000000000000     
 -0.30940000000000001          0.0000000000000000     
 -0.30879999999999996          0.0000000000000000     
 -0.30819999999999997          0.0000000000000000     
 -0.30759999999999998          0.0000000000000000     
 -0.30700000000000000          0.0000000000000000     
 -0.30640000000000001          0.0000000000000000     
 -0.30579999999999996          0.0000000000000000     
 -0.30519999999999997          0.0000000000000000     
 -0.30459999999999998          0.0000000000000000     
 -0.30399999999999999          0.0000000000000000     
 -0.30340000000000000          0.0000000000000000     
 -0.30279999999999996          0.0000000000000000     
 -0.30219999999999997          0.0000000000000000     
 -0.30159999999999998          0.0000000000000000     
 -0.30099999999999999          0.0000000000000000     
 -0.30040000000000000          0.0000000000000000     
 -0.29979999999999996          0.0000000000000000     
 -0.29919999999999997          0.0000000000000000     
 -0.29859999999999998          0.0000000000000000     
 -0.29799999999999999          0.0000000000000000     
 -0.29740000000000000          0.0000000000000000     
 -0.29679999999999995          0.0000000000000000     
 -0.29619999999999996          0.0000000000000000     
 -0.29559999999999997          0.0000000000000000     
 -0.29499999999999998          0.0000000000000000     
 -0.29440000000000000          0.0000000000000000     
 -0.29379999999999995          0.0000000000000000     
 -0.29319999999999996          0.0000000000000000     
 -0.29259999999999997          0.0000000000000000     
 -0.29199999999999998          0.0000000000000000     
 -0.29139999999999999          0.0000000000000000     
 -0.29079999999999995          0.0000000000000000     
 -0.29019999999999996          0.0000000000000000     
 -0.28959999999999997          0.0000000000000000     
 -0.28899999999999998          0.0000000000000000     
 -0.28839999999999999          0.0000000000000000     
 -0.28779999999999994          0.0000000000000000     
 -0.28720000000000001          0.0000000000000000     
 -0.28659999999999997          0.0000000000000000     
 -0.28599999999999998          0.0000000000000000     
 -0.28539999999999999          0.0000000000000000     
 -0.28479999999999994          0.0000000000000000     
 -0.28420000000000001          0.0000000000000000     
 -0.28359999999999996          0.0000000000000000     
 -0.28299999999999997          0.0000000000000000     
 -0.28239999999999998          0.0000000000000000     
 -0.28179999999999999          0.0000000000000000     
 -0.28120000000000001          0.0000000000000000     
 -0.28059999999999996          0.0000000000000000     
 -0.27999999999999997          0.0000000000000000     
 -0.27939999999999998          0.0000000000000000     
 -0.27879999999999999          0.0000000000000000     
 -0.27820000000000000          0.0000000000000000     
 -0.27759999999999996          0.0000000000000000     
 -0.27699999999999997          0.0000000000000000     
 -0.27639999999999998          0.0000000000000000     
 -0.27579999999999999          0.0000000000000000     
 -0.27520000000000000          0.0000000000000000     
 -0.27459999999999996          0.0000000000000000     
 -0.27399999999999997          0.0000000000000000     
 -0.27339999999999998          0.0000000000000000     
 -0.27279999999999999          0.0000000000000000     
 -0.27220000000000000          0.0000000000000000     
 -0.27159999999999995          0.0000000000000000     
 -0.27100000000000002          0.0000000000000000     
 -0.27039999999999997          0.0000000000000000     
 -0.26979999999999998          0.0000000000000000     
 -0.26919999999999999          0.0000000000000000     
 -0.26859999999999995          0.0000000000000000     
 -0.26800000000000002          0.0000000000000000     
 -0.26739999999999997          0.0000000000000000     
 -0.26679999999999998          0.0000000000000000     
 -0.26619999999999999          0.0000000000000000     
 -0.26559999999999995          0.0000000000000000     
 -0.26500000000000001          0.0000000000000000     
 -0.26439999999999997          0.0000000000000000     
 -0.26379999999999998          0.0000000000000000     
 -0.26319999999999999          0.0000000000000000     
 -0.26259999999999994          0.0000000000000000     
 -0.26200000000000001          0.0000000000000000     
 -0.26139999999999997          0.0000000000000000     
 -0.26079999999999998          0.0000000000000000     
 -0.26019999999999999          0.0000000000000000     
 -0.25959999999999994          0.0000000000000000     
 -0.25900000000000001          0.0000000000000000     
 -0.25839999999999996          0.0000000000000000     
 -0.25779999999999997          0.0000000000000000     
 -0.25719999999999998          0.0000000000000000     
 -0.25659999999999994          0.0000000000000000     
 -0.25600000000000001          0.0000000000000000     
 -0.25539999999999996          0.0000000000000000     
 -0.25479999999999997          0.0000000000000000     
 -0.25419999999999998          0.0000000000000000     
 -0.25359999999999999          0.0000000000000000     
 -0.25300000000000000          0.0000000000000000     
 -0.25239999999999996          0.0000000000000000     
 -0.25179999999999997          0.0000000000000000     
 -0.25119999999999998          0.0000000000000000     
 -0.25059999999999999          0.0000000000000000     
 -0.24999999999999997          0.0000000000000000     
 -0.24939999999999998          0.0000000000000000     
 -0.24879999999999999          0.0000000000000000     
 -0.24819999999999998          0.0000000000000000     
 -0.24759999999999999          0.0000000000000000     
 -0.24699999999999997          0.0000000000000000     
 -0.24639999999999998          0.0000000000000000     
 -0.24579999999999999          0.0000000000000000     
 -0.24519999999999997          0.0000000000000000     
 -0.24459999999999998          0.0000000000000000     
 -0.24399999999999997          0.0000000000000000     
 -0.24339999999999998          0.0000000000000000     
 -0.24279999999999999          0.0000000000000000     
 -0.24219999999999997          0.0000000000000000     
 -0.24159999999999998          0.0000000000000000     
 -0.24099999999999999          0.0000000000000000     
 -0.24039999999999997          0.0000000000000000     
 -0.23979999999999999          0.0000000000000000     
 -0.23919999999999997          0.0000000000000000     
 -0.23859999999999998          0.0000000000000000     
 -0.23799999999999999          0.0000000000000000     
 -0.23739999999999997          0.0000000000000000     
 -0.23679999999999998          0.0000000000000000     
 -0.23619999999999999          0.0000000000000000     
 -0.23559999999999998          0.0000000000000000     
 -0.23499999999999999          0.0000000000000000     
 -0.23439999999999997          0.0000000000000000     
 -0.23379999999999998          0.0000000000000000     
 -0.23319999999999999          0.0000000000000000     
 -0.23259999999999997          0.0000000000000000     
 -0.23199999999999998          0.0000000000000000     
 -0.23139999999999999          0.0000000000000000     
 -0.23079999999999998          0.0000000000000000     
 -0.23019999999999999          0.0000000000000000     
 -0.22959999999999997          0.0000000000000000     
 -0.22899999999999998          0.0000000000000000     
 -0.22839999999999999          0.0000000000000000     
 -0.22779999999999997          0.0000000000000000     
 -0.22719999999999999          0.0000000000000000     
 -0.22659999999999997          0.0000000000000000     
 -0.22599999999999998          0.0000000000000000     
 -0.22539999999999999          0.0000000000000000     
 -0.22479999999999997          0.0000000000000000     
 -0.22419999999999998          0.0000000000000000     
 -0.22359999999999999          0.0000000000000000     
 -0.22299999999999998          0.0000000000000000     
 -0.22239999999999999          0.0000000000000000     
 -0.22179999999999997          0.0000000000000000     
 -0.22119999999999998          0.0000000000000000     
 -0.22059999999999999          0.0000000000000000     
 -0.21999999999999997          0.0000000000000000     
 -0.21939999999999998          0.0000000000000000     
 -0.21879999999999999          0.0000000000000000     
 -0.21819999999999998          0.0000000000000000     
 -0.21759999999999999          0.0000000000000000     
 -0.21699999999999997          0.0000000000000000     
 -0.21639999999999998          0.0000000000000000     
 -0.21579999999999999          0.0000000000000000     
 -0.21519999999999997          0.0000000000000000     
 -0.21459999999999999          0.0000000000000000     
 -0.21400000000000000          0.0000000000000000     
 -0.21339999999999998          0.0000000000000000     
 -0.21279999999999999          0.0000000000000000     
 -0.21219999999999997          0.0000000000000000     
 -0.21159999999999998          0.0000000000000000     
 -0.21099999999999999          0.0000000000000000     
 -0.21039999999999998          0.0000000000000000     
 -0.20979999999999999          0.0000000000000000     
 -0.20920000000000000          0.0000000000000000     
 -0.20859999999999998          0.0000000000000000     
 -0.20799999999999999          0.0000000000000000     
 -0.20739999999999997          0.0000000000000000     
 -0.20679999999999998          0.0000000000000000     
 -0.20619999999999999          0.0000000000000000     
 -0.20559999999999998          0.0000000000000000     
 -0.20499999999999999          0.0000000000000000     
 -0.20439999999999997          0.0000000000000000     
 -0.20379999999999998          0.0000000000000000     
 -0.20319999999999999          0.0000000000000000     
 -0.20259999999999997          0.0000000000000000     
 -0.20199999999999999          0.0000000000000000     
 -0.20140000000000000          0.0000000000000000     
 -0.20079999999999998          0.0000000000000000     
 -0.20019999999999999          0.0000000000000000     
 -0.19959999999999997          0.0000000000000000     
 -0.19899999999999998          0.0000000000000000     
 -0.19839999999999999          0.0000000000000000     
 -0.19779999999999998          0.0000000000000000     
 -0.19719999999999999          0.0000000000000000     
 -0.19660000000000000          0.0000000000000000     
 -0.19599999999999998          0.0000000000000000     
 -0.19539999999999999          0.0000000000000000     
 -0.19479999999999997          0.0000000000000000     
 -0.19419999999999998          0.0000000000000000     
 -0.19359999999999999          0.0000000000000000     
 -0.19299999999999998          0.0000000000000000     
 -0.19239999999999999          0.0000000000000000     
 -0.19180000000000000          0.0000000000000000     
 -0.19119999999999998          0.0000000000000000     
 -0.19059999999999999          0.0000000000000000     
 -0.18999999999999997          0.0000000000000000     
 -0.18939999999999999          0.0000000000000000     
 -0.18880000000000000          0.0000000000000000     
 -0.18819999999999998          0.0000000000000000     
 -0.18759999999999999          0.0000000000000000     
 -0.18699999999999997          0.0000000000000000     
 -0.18639999999999998          0.0000000000000000     
 -0.18579999999999999          0.0000000000000000     
 -0.18519999999999998          0.0000000000000000     
 -0.18459999999999999          0.0000000000000000     
 -0.18400000000000000          0.0000000000000000     
 -0.18339999999999998          0.0000000000000000     
 -0.18279999999999999          0.0000000000000000     
 -0.18219999999999997          0.0000000000000000     
 -0.18159999999999998          0.0000000000000000     
 -0.18099999999999999          0.0000000000000000     
 -0.18039999999999998          0.0000000000000000     
 -0.17979999999999999          0.0000000000000000     
 -0.17920000000000000          0.0000000000000000     
 -0.17859999999999998          0.0000000000000000     
 -0.17799999999999999          0.0000000000000000     
 -0.17739999999999997          0.0000000000000000     
 -0.17679999999999998          0.0000000000000000     
 -0.17620000000000000          0.0000000000000000     
 -0.17559999999999998          0.0000000000000000     
 -0.17499999999999999          0.0000000000000000     
 -0.17440000000000000          0.0000000000000000     
 -0.17379999999999998          0.0000000000000000     
 -0.17319999999999999          0.0000000000000000     
 -0.17259999999999998          0.0000000000000000     
 -0.17199999999999999          0.0000000000000000     
 -0.17140000000000000          0.0000000000000000     
 -0.17079999999999998          0.0000000000000000     
 -0.17019999999999999          0.0000000000000000     
 -0.16959999999999997          0.0000000000000000     
 -0.16899999999999998          0.0000000000000000     
 -0.16839999999999999          0.0000000000000000     
 -0.16779999999999998          0.0000000000000000     
 -0.16719999999999999          0.0000000000000000     
 -0.16660000000000000          0.0000000000000000     
 -0.16599999999999998          0.0000000000000000     
 -0.16539999999999999          0.0000000000000000     
 -0.16479999999999997          0.0000000000000000     
 -0.16419999999999998          0.0000000000000000     
 -0.16360000000000000          0.0000000000000000     
 -0.16299999999999998          0.0000000000000000     
 -0.16239999999999999          0.0000000000000000     
 -0.16180000000000000          0.0000000000000000     
 -0.16119999999999998          0.0000000000000000     
 -0.16059999999999999          0.0000000000000000     
 -0.15999999999999998          0.0000000000000000     
 -0.15939999999999999          0.0000000000000000     
 -0.15880000000000000          0.0000000000000000     
 -0.15819999999999998          0.0000000000000000     
 -0.15759999999999999          0.0000000000000000     
 -0.15700000000000000          0.0000000000000000     
 -0.15639999999999998          0.0000000000000000     
 -0.15579999999999999          0.0000000000000000     
 -0.15519999999999998          0.0000000000000000     
 -0.15459999999999999          0.0000000000000000     
 -0.15400000000000000          0.0000000000000000     
 -0.15339999999999998          0.0000000000000000     
 -0.15279999999999999          0.0000000000000000     
 -0.15220000000000000          0.0000000000000000     
 -0.15159999999999998          0.0000000000000000     
 -0.15100000000000000          0.0000000000000000     
 -0.15039999999999998          0.0000000000000000     
 -0.14979999999999999          0.0000000000000000     
 -0.14920000000000000          0.0000000000000000     
 -0.14860000000000001          0.0000000000000000     
 -0.14799999999999996          0.0000000000000000     
 -0.14739999999999998          0.0000000000000000     
 -0.14679999999999999          0.0000000000000000     
 -0.14620000000000000          0.0000000000000000     
 -0.14560000000000001          0.0000000000000000     
 -0.14499999999999996          0.0000000000000000     
 -0.14439999999999997          0.0000000000000000     
 -0.14379999999999998          0.0000000000000000     
 -0.14319999999999999          0.0000000000000000     
 -0.14260000000000000          0.0000000000000000     
 -0.14200000000000002          0.0000000000000000     
 -0.14139999999999997          0.0000000000000000     
 -0.14079999999999998          0.0000000000000000     
 -0.14019999999999999          0.0000000000000000     
 -0.13960000000000000          0.0000000000000000     
 -0.13900000000000001          0.0000000000000000     
 -0.13839999999999997          0.0000000000000000     
 -0.13779999999999998          0.0000000000000000     
 -0.13719999999999999          0.0000000000000000     
 -0.13660000000000000          0.0000000000000000     
 -0.13600000000000001          0.0000000000000000     
 -0.13539999999999996          0.0000000000000000     
 -0.13479999999999998          0.0000000000000000     
 -0.13419999999999999          0.0000000000000000     
 -0.13360000000000000          0.0000000000000000     
 -0.13300000000000001          0.0000000000000000     
 -0.13240000000000002          0.0000000000000000     
 -0.13179999999999997          0.0000000000000000     
 -0.13119999999999998          0.0000000000000000     
 -0.13059999999999999          0.0000000000000000     
 -0.13000000000000000          0.0000000000000000     
 -0.12940000000000002          0.0000000000000000     
 -0.12879999999999997          0.0000000000000000     
 -0.12819999999999998          0.0000000000000000     
 -0.12759999999999999          0.0000000000000000     
 -0.12700000000000000          0.0000000000000000     
 -0.12640000000000001          0.0000000000000000     
 -0.12579999999999997          0.0000000000000000     
 -0.12519999999999998          0.0000000000000000     
 -0.12459999999999999          0.0000000000000000     
 -0.12400000000000000          0.0000000000000000     
 -0.12340000000000001          0.0000000000000000     
 -0.12279999999999996          0.0000000000000000     
 -0.12219999999999998          0.0000000000000000     
 -0.12159999999999999          0.0000000000000000     
 -0.12100000000000000          0.0000000000000000     
 -0.12040000000000001          0.0000000000000000     
 -0.11980000000000002          0.0000000000000000     
 -0.11919999999999997          0.0000000000000000     
 -0.11859999999999998          0.0000000000000000     
 -0.11799999999999999          0.0000000000000000     
 -0.11740000000000000          0.0000000000000000     
 -0.11680000000000001          0.0000000000000000     
 -0.11619999999999997          0.0000000000000000     
 -0.11559999999999998          0.0000000000000000     
 -0.11499999999999999          0.0000000000000000     
 -0.11440000000000000          0.0000000000000000     
 -0.11380000000000001          0.0000000000000000     
 -0.11319999999999997          0.0000000000000000     
 -0.11259999999999998          0.0000000000000000     
 -0.11199999999999999          0.0000000000000000     
 -0.11140000000000000          0.0000000000000000     
 -0.11080000000000001          0.0000000000000000     
 -0.11019999999999996          0.0000000000000000     
 -0.10959999999999998          0.0000000000000000     
 -0.10899999999999999          0.0000000000000000     
 -0.10840000000000000          0.0000000000000000     
 -0.10780000000000001          0.0000000000000000     
 -0.10720000000000002          0.0000000000000000     
 -0.10659999999999997          0.0000000000000000     
 -0.10599999999999998          0.0000000000000000     
 -0.10539999999999999          0.0000000000000000     
 -0.10480000000000000          0.0000000000000000     
 -0.10420000000000001          0.0000000000000000     
 -0.10359999999999997          0.0000000000000000     
 -0.10299999999999998          0.0000000000000000     
 -0.10239999999999999          0.0000000000000000     
 -0.10180000000000000          0.0000000000000000     
 -0.10120000000000001          0.0000000000000000     
 -0.10059999999999997          0.0000000000000000     
  -9.9999999999999978E-002     0.0000000000000000     
  -9.9399999999999988E-002     0.0000000000000000     
  -9.8799999999999999E-002     0.0000000000000000     
  -9.8200000000000010E-002     0.0000000000000000     
  -9.7600000000000020E-002     0.0000000000000000     
  -9.6999999999999975E-002     0.0000000000000000     
  -9.6399999999999986E-002     0.0000000000000000     
  -9.5799999999999996E-002     0.0000000000000000     
  -9.5200000000000007E-002     0.0000000000000000     
  -9.4600000000000017E-002     0.0000000000000000     
  -9.3999999999999972E-002     0.0000000000000000     
  -9.3399999999999983E-002     0.0000000000000000     
  -9.2799999999999994E-002     0.0000000000000000     
  -9.2200000000000004E-002     0.0000000000000000     
  -9.1600000000000015E-002     0.0000000000000000     
  -9.0999999999999970E-002     0.0000000000000000     
  -9.0399999999999980E-002     0.0000000000000000     
  -8.9799999999999991E-002     0.0000000000000000     
  -8.9200000000000002E-002     0.0000000000000000     
  -8.8600000000000012E-002     0.0000000000000000     
  -8.7999999999999967E-002     0.0000000000000000     
  -8.7399999999999978E-002     0.0000000000000000     
  -8.6799999999999988E-002     0.0000000000000000     
  -8.6199999999999999E-002     0.0000000000000000     
  -8.5600000000000009E-002     0.0000000000000000     
  -8.5000000000000020E-002     0.0000000000000000     
  -8.4399999999999975E-002     0.0000000000000000     
  -8.3799999999999986E-002     0.0000000000000000     
  -8.3199999999999996E-002     0.0000000000000000     
  -8.2600000000000007E-002     0.0000000000000000     
  -8.2000000000000017E-002     0.0000000000000000     
  -8.1399999999999972E-002     0.0000000000000000     
  -8.0799999999999983E-002     0.0000000000000000     
  -8.0199999999999994E-002     0.0000000000000000     
  -7.9600000000000004E-002     0.0000000000000000     
  -7.9000000000000015E-002     0.0000000000000000     
  -7.8399999999999970E-002     0.0000000000000000     
  -7.7799999999999980E-002     0.0000000000000000     
  -7.7199999999999991E-002     0.0000000000000000     
  -7.6600000000000001E-002     0.0000000000000000     
  -7.6000000000000012E-002     0.0000000000000000     
  -7.5400000000000023E-002     0.0000000000000000     
  -7.4799999999999978E-002     0.0000000000000000     
  -7.4199999999999988E-002     0.0000000000000000     
  -7.3599999999999999E-002     0.0000000000000000     