 -0.39999999999999997          0.0000000000000000     
 -0.39939999999999998          0.0000000000000000     
 -0.39879999999999999         -2.8156015340242587E-027
 -0.39819999999999994          5.7989863904426826E-019
 -0.39759999999999995         -1.2350650269641507E-018
 -0.39699999999999996         -8.0838131185875952E-017
 -0.39639999999999997         -8.2372729893174129E-017
 -0.39579999999999999          2.4293391971198005E-016
 -0.39519999999999994          4.0696661450810362E-016
 -0.39459999999999995          5.0320194517304573E-016
 -0.39399999999999996          3.4433546314090375E-016
 -0.39339999999999997         -1.2561108178532149E-016
 -0.39279999999999998         -1.4856677315176650E-015
 -0.39219999999999999         -2.1497319271652614E-015
 -0.39159999999999995         -1.1877725967154320E-015
 -0.39099999999999996          6.9984641429008472E-016
 -0.39039999999999997          2.5572792886378263E-015
 -0.38979999999999998          1.3438796042240971E-014
 -0.38919999999999999          2.1129114049481170E-015
 -0.38859999999999995          7.3423018153665615E-015
 -0.38799999999999996          5.0131098646994787E-015
 -0.38739999999999997         -6.2492248551762001E-015
 -0.38679999999999998         -4.4412063477240575E-015
 -0.38619999999999999         -7.3828757523312265E-016
 -0.38559999999999994          5.4437528500283529E-015
 -0.38499999999999995          4.3978314845610593E-015
 -0.38439999999999996          3.2291636100918297E-015
 -0.38379999999999997         -1.6735132753181855E-015
 -0.38319999999999999         -3.8237646454383507E-015
 -0.38259999999999994         -3.9247635835195326E-015
 -0.38199999999999995         -4.3556247327718840E-016
 -0.38139999999999996          4.1650079618657434E-015
 -0.38079999999999997          8.8597164476264360E-015
 -0.38019999999999998          9.2963314387499267E-015
 -0.37959999999999999          5.8000631885215051E-015
 -0.37899999999999995         -3.8607669091622404E-017
 -0.37839999999999996         -5.4938387552324469E-015
 -0.37779999999999997         -1.1253988057213435E-014
 -0.37719999999999998         -1.1059558420434788E-014
 -0.37659999999999999         -7.7517024849277187E-015
 -0.37599999999999995         -3.2729079913780676E-015
 -0.37539999999999996          3.0020552304498753E-015
 -0.37479999999999997          6.4856270920736654E-015
 -0.37419999999999998          9.1391272059372121E-015
 -0.37359999999999999          3.7353310176132127E-015
 -0.37300000000000000          4.7611536676707010E-016
 -0.37239999999999995         -2.1334057906234084E-014
 -0.37179999999999996         -4.2544415120851151E-014
 -0.37119999999999997         -3.3130806041323235E-014
 -0.37059999999999998         -2.6872670823058394E-014
 -0.37000000000000000         -8.7879439578737902E-015
 -0.36939999999999995         -1.4558931046414897E-014
 -0.36879999999999996          9.2905504388849161E-015
 -0.36819999999999997          1.0571036403270607E-014
 -0.36759999999999998          8.9321004951669995E-015
 -0.36699999999999999          5.4447307495659580E-015
 -0.36639999999999995          4.4681517363256377E-015
 -0.36579999999999996          4.9487730536743046E-015
 -0.36519999999999997         -3.0484768711241473E-016
 -0.36459999999999998         -1.1521464121297398E-014
 -0.36399999999999999         -1.8914569278774378E-014
 -0.36339999999999995         -2.0480821289674093E-014
 -0.36279999999999996         -1.4379395636980770E-014
 -0.36219999999999997         -4.8432217370181045E-015
 -0.36159999999999998          4.8071074708723807E-014
 -0.36099999999999999          9.2290385674421299E-014
 -0.36039999999999994          8.8376951156571293E-014
 -0.35979999999999995          3.4808026144576842E-014
 -0.35919999999999996          1.9366363100312665E-014
 -0.35859999999999997          5.5585930687973226E-014
 -0.35799999999999998          4.7835396896754481E-016
 -0.35739999999999994          3.7816209446641866E-014
 -0.35679999999999995         -5.6068719139117443E-014
 -0.35619999999999996         -5.6808917514800453E-014
 -0.35559999999999997         -7.2151472622038193E-014
 -0.35499999999999998         -3.1972620623092751E-014
 -0.35439999999999999          1.1904510207737685E-014
 -0.35379999999999995         -1.7374474280560585E-015
 -0.35319999999999996          5.7408552466952506E-014
 -0.35259999999999997          4.6702686206170907E-014
 -0.35199999999999998         -2.1752736127666518E-014
 -0.35139999999999999         -5.4293927616603718E-014
 -0.35080000000000000          1.6495427934823045E-014
 -0.35019999999999996          1.6284548918208720E-014
 -0.34959999999999997          1.1088933184232388E-013
 -0.34899999999999998          1.0332452802424077E-013
 -0.34839999999999999          7.0559660544922131E-014
 -0.34780000000000000          2.5518830958407533E-014
 -0.34719999999999995         -2.9226197606783619E-014
 -0.34659999999999996         -1.4683680703633795E-013
 -0.34599999999999997         -2.3382890675799350E-013
 -0.34539999999999998         -1.5963130069098636E-013
 -0.34480000000000000         -3.5485577963480924E-014
 -0.34419999999999995          1.4303804722701902E-013
 -0.34359999999999996          2.6829905484804240E-013
 -0.34299999999999997          2.3990615809037219E-013
 -0.34239999999999998          2.4755818597323176E-013
 -0.34179999999999999         -1.4861071086832295E-014
 -0.34119999999999995         -1.6812693273172974E-013
 -0.34059999999999996         -1.5857459659610051E-013
 -0.33999999999999997         -2.2254355476480914E-013
 -0.33939999999999998         -1.8258663895057148E-013
 -0.33879999999999999         -1.4472116267958551E-013
 -0.33819999999999995          3.6256510082622109E-014
 -0.33759999999999996          2.3174271204275121E-013
 -0.33699999999999997          1.1318959719432576E-014
 -0.33639999999999998         -2.7989720933238420E-014
 -0.33579999999999999         -7.8002207015530345E-014
 -0.33519999999999994         -5.3699066542142390E-014
 -0.33459999999999995         -1.0400797180432596E-014
 -0.33399999999999996          4.8816002916384285E-014
 -0.33339999999999997          5.3082135177207404E-014
 -0.33279999999999998          4.6161689650891374E-014
 -0.33219999999999994         -1.5948605825745477E-013
 -0.33160000000000001         -3.8151393936397549E-014
 -0.33099999999999996         -4.8252051768234161E-014
 -0.33039999999999997         -4.0950194082033098E-014
 -0.32979999999999998         -5.5913834082514310E-014
 -0.32919999999999999          2.0597095196409586E-014
 -0.32860000000000000          3.5571456939937143E-014
 -0.32799999999999996          8.9035522661193300E-014
 -0.32739999999999997         -1.6684274946852928E-013
 -0.32679999999999998         -2.3902359041691468E-013
 -0.32619999999999999         -4.1718535635608400E-013
 -0.32560000000000000         -3.7111779578255510E-013
 -0.32499999999999996         -2.6068250748127741E-013
 -0.32439999999999997          1.8566737231863473E-013
 -0.32379999999999998         -1.1612493735699281E-013
 -0.32319999999999999          2.8696408313835797E-013
 -0.32260000000000000         -8.5721943324061634E-014
 -0.32199999999999995         -8.4473775901778431E-014
 -0.32139999999999996          2.0830551368013206E-013
 -0.32079999999999997          2.1871638885857109E-013
 -0.32019999999999998         -2.9105740712541406E-013
 -0.31960000000000000          2.0014887100114342E-014
 -0.31899999999999995         -5.3882336519840961E-015
 -0.31839999999999996         -4.0643463123041582E-014
 -0.31779999999999997          4.8922281156715819E-013
 -0.31719999999999998          4.7088130920511229E-013
 -0.31659999999999999          1.1097312711772986E-013
 -0.31599999999999995         -2.7913901320063793E-014
 -0.31539999999999996         -1.6394887834489391E-013
 -0.31479999999999997         -6.2277190782805691E-013
 -0.31419999999999998         -5.9172518230773963E-013
 -0.31359999999999999         -5.2353444929958970E-013
 -0.31299999999999994         -1.8267534024080795E-013
 -0.31239999999999996          1.9348018738367390E-013
 -0.31179999999999997         -4.1165885262227364E-013
 -0.31119999999999998          3.4614344268484032E-013
 -0.31059999999999999         -1.7463142748270349E-013
 -0.30999999999999994         -4.1985678307524324E-014
 -0.30940000000000001         -9.7276069035805157E-014
 -0.30879999999999996          5.1318015592202726E-013
 -0.30819999999999997          3.2075942379625189E-013
 -0.30759999999999998          7.1594992304482852E-014
 -0.30700000000000000         -3.3382603864366700E-013
 -0.30640000000000001         -6.9870747642503117E-013
 -0.30579999999999996         -7.8420413609017747E-013
 -0.30519999999999997         -6.9447263694941141E-013
 -0.30459999999999998         -5.6040409942767488E-013
 -0.30399999999999999         -1.1838147378605973E-013
 -0.30340000000000000         -1.2000008191986877E-012
 -0.30279999999999996         -3.7837658353745418E-013
 -0.30219999999999997         -5.6351098917314935E-013
 -0.30159999999999998          2.5935826294780362E-013
 -0.30099999999999999          6.5038268824355039E-013
 -0.30040000000000000          1.1893927683026551E-012
 -0.29979999999999996          1.0947239208886073E-012
 -0.29919999999999997          8.0293703543649064E-013
 -0.29859999999999998          1.0965786655450782E-012
 -0.29799999999999999          6.6562581184717584E-013
 -0.29740000000000000          6.2502731939736988E-013
 -0.29679999999999995          1.3070943524588763E-013
 -0.29619999999999996         -2.2812524438919901E-013
 -0.29559999999999997         -1.4432924256777002E-012
 -0.29499999999999998          8.3110168053179834E-014
 -0.29440000000000000         -9.7263072162262487E-013
 -0.29379999999999995          7.9379216958233578E-013
 -0.29319999999999996         -3.3050585922581033E-013
 -0.29259999999999997          1.4294976877562982E-012
 -0.29199999999999998          1.6854259958162809E-012
 -0.29139999999999999          1.9022218696040927E-012
 -0.29079999999999995          2.7329076501825256E-012
 -0.29019999999999996          6.5659386564928535E-013
 -0.28959999999999997         -1.1107996033404843E-012
 -0.28899999999999998          1.3777024226307999E-012
 -0.28839999999999999         -1.2976141428727717E-012
 -0.28779999999999994         -2.5843470159020443E-012
 -0.28720000000000001         -2.0244450647105561E-012
 -0.28659999999999997         -3.0925650495311485E-012
 -0.28599999999999998         -3.2733501239418095E-012
 -0.28539999999999999          1.5870087904414076E-013
 -0.28479999999999994          7.2433980471617310E-013
 -0.28420000000000001         -4.2475558118502954E-013
 -0.28359999999999996          2.4110010862776754E-012
 -0.28299999999999997          2.2283635440351057E-012
 -0.28239999999999998          1.8725635191757517E-012
 -0.28179999999999999          1.1721427864777589E-012
 -0.28120000000000001          2.6926827738013581E-013
 -0.28059999999999996         -8.5059476823134972E-013
 -0.27999999999999997         -1.7773985408475745E-012
 -0.27939999999999998         -2.0570780322193283E-012
 -0.27879999999999999         -1.9882830191303436E-012
 -0.27820000000000000         -1.0839350250702040E-012
 -0.27759999999999996         -5.0567183903713064E-013
 -0.27699999999999997          7.7445787684347206E-014
 -0.27639999999999998          4.5180151259744880E-014
 -0.27579999999999999         -4.2741645048553420E-014
 -0.27520000000000000         -1.9394861693229626E-013
 -0.27459999999999996         -3.3900212823533005E-013
 -0.27399999999999997          4.2606158401695127E-013
 -0.27339999999999998          1.0951224736072129E-012
 -0.27279999999999999          8.8871759344050227E-013
 -0.27220000000000000          9.6389617208064715E-013
 -0.27159999999999995          5.6935814569947230E-013
 -0.27100000000000002         -1.6177592035079846E-012
 -0.27039999999999997         -2.5460666561172296E-012
 -0.26979999999999998         -2.6012315131745956E-012
 -0.26919999999999999         -1.8579382823902257E-012
 -0.26859999999999995         -3.9531857740646506E-014
 -0.26800000000000002          5.1226757211142449E-012
 -0.26739999999999997          7.7516075155936726E-012
 -0.26679999999999998          3.8913646610572172E-012
 -0.26619999999999999          2.8311331144031948E-012
 -0.26559999999999995         -2.8821535002360177E-012
 -0.26500000000000001         -3.1700878901086416E-012
 -0.26439999999999997          3.1079212554213642E-012
 -0.26379999999999998          4.4496585235864750E-012
 -0.26319999999999999          5.5436510416895235E-012
 -0.26259999999999994          5.4125675295890741E-012
 -0.26200000000000001          3.6834107812466765E-012
 -0.26139999999999997         -3.2491494304093260E-012
 -0.26079999999999998         -1.0985028858767620E-011
 -0.26019999999999999         -9.2439623664009041E-012
 -0.25959999999999994         -1.0560890269933898E-012
 -0.25900000000000001          2.3925308349076468E-012
 -0.25839999999999996          5.5619116083593934E-012
 -0.25779999999999997          7.0707073009101951E-012
 -0.25719999999999998          7.9227891608413259E-012
 -0.25659999999999994          5.5722202026153855E-012
 -0.25600000000000001          1.8258116372960043E-012
 -0.25539999999999996         -1.3525055641422368E-012
 -0.25479999999999997         -1.1301504870830925E-011
 -0.25419999999999998         -2.1740321348717728E-011
 -0.25359999999999999         -1.7499300619672198E-011
 -0.25300000000000000         -4.5279792827528087E-013
 -0.25239999999999996          9.1959313427980582E-012
 -0.25179999999999997          2.1632685226480319E-011
 -0.25119999999999998          8.7315701544077307E-012
 -0.25059999999999999          3.7787156216551043E-012
 -0.24999999999999997         -1.0463808639005201E-012
 -0.24939999999999998         -3.4430555195114065E-012
 -0.24879999999999999          1.2442299794634959E-012
 -0.24819999999999998          6.7617621571369746E-012
 -0.24759999999999999          2.1342372313881697E-012
 -0.24699999999999997         -2.8311860234692121E-012
 -0.24639999999999998          4.5905757493913679E-012
 -0.24579999999999999         -9.3635247125356535E-012
 -0.24519999999999997         -1.1967041073368545E-011
 -0.24459999999999998         -1.2409962814319275E-011
 -0.24399999999999997         -9.7179634131472348E-012
 -0.24339999999999998         -1.2123200013314239E-011
 -0.24279999999999999         -4.1348474123792389E-012
 -0.24219999999999997          3.4323967279537015E-012
 -0.24159999999999998          1.9363389364146499E-011
 -0.24099999999999999          1.5150316765022431E-011
 -0.24039999999999997          5.4640671327821355E-012
 -0.23979999999999999         -1.6479251990775268E-011
 -0.23919999999999997         -1.7572101759788517E-011
 -0.23859999999999998         -1.5674399278520212E-011
 -0.23799999999999999         -2.1481094680808610E-011
 -0.23739999999999997         -2.9900775323603301E-013
 -0.23679999999999998          1.7246027522732632E-011
 -0.23619999999999999          1.6109755890392208E-011
 -0.23559999999999998          1.1194165386307908E-011
 -0.23499999999999999          3.0659475609359776E-013
 -0.23439999999999997         -1.0766373036152910E-011
 -0.23379999999999998         -1.6317041467983628E-011
 -0.23319999999999999         -1.0686993824615687E-011
 -0.23259999999999997         -8.9004372177525076E-014
 -0.23199999999999998          3.8348521406994518E-012
 -0.23139999999999999          7.4378914485806469E-012
 -0.23079999999999998          4.8018646350844740E-012
 -0.23019999999999999         -3.1956850360392863E-012
 -0.22959999999999997         -7.5720029205084138E-012
 -0.22899999999999998         -7.4262809443559341E-012
 -0.22839999999999999          9.2358299827455248E-012
 -0.22779999999999997          2.4673556600629531E-011
 -0.22719999999999999          5.1832482750313602E-011
 -0.22659999999999997          3.7605592251299669E-011
 -0.22599999999999998          3.5441521245571650E-011
 -0.22539999999999999         -7.9306312493650222E-014
 -0.22479999999999997         -5.9497955173792860E-011
 -0.22419999999999998         -6.5605791632616928E-011
 -0.22359999999999999         -7.2121399130598007E-011
 -0.22299999999999998         -4.9928082501704552E-011
 -0.22239999999999999         -2.5793742142177223E-011
 -0.22179999999999997          2.2545406513918564E-011
 -0.22119999999999998          3.6674333708797136E-011
 -0.22059999999999999          5.2643667203255973E-011
 -0.21999999999999997          3.4100940821124581E-011
 -0.21939999999999998          1.0268493520759758E-011
 -0.21879999999999999         -3.8991800239973617E-012
 -0.21819999999999998         -1.0836082899035038E-011
 -0.21759999999999999          1.0178901992119460E-011
 -0.21699999999999997          1.1228899754467392E-011
 -0.21639999999999998          9.1694984938328616E-012
 -0.21579999999999999         -1.8145738384101051E-011
 -0.21519999999999997         -2.7509621317034494E-011
 -0.21459999999999999         -2.8306752775097976E-011
 -0.21400000000000000         -7.0378668171056091E-011
 -0.21339999999999998         -9.2478602900514240E-012
 -0.21279999999999999          1.2584663346137948E-011
 -0.21219999999999997          4.1229557962152441E-011
 -0.21159999999999998          4.3663798271476040E-011
 -0.21099999999999999          5.0157461517486013E-011
 -0.21039999999999998          2.6723548721130364E-011
 -0.20979999999999999         -1.7078843764575802E-012
 -0.20920000000000000         -4.5331377540591689E-011
 -0.20859999999999998         -1.6878064701061901E-012
 -0.20799999999999999         -3.4119398278908974E-011
 -0.20739999999999997         -1.3549716036675985E-011
 -0.20679999999999998          8.7339085616533474E-012
 -0.20619999999999999         -3.2076060557661989E-012
 -0.20559999999999998         -4.9451474165573828E-011
 -0.20499999999999999         -2.1755793347399965E-011
 -0.20439999999999997         -1.6463783461539983E-011
 -0.20379999999999998         -2.9547114754890913E-011
 -0.20319999999999999          3.1645748521658135E-011
 -0.20259999999999997          3.7744647685133970E-011
 -0.20199999999999999          5.3886711065542769E-011
 -0.20140000000000000          3.4175304947092755E-011
 -0.20079999999999998         -7.6535722204340573E-012
 -0.20019999999999999         -4.0769151943287341E-011
 -0.19959999999999997         -5.1923545324461529E-011
 -0.19899999999999998         -5.8009919784440811E-011
 -0.19839999999999999         -2.2484594481425590E-012
 -0.19779999999999998          1.3380650754069023E-011
 -0.19719999999999999          7.2601050171705594E-011
 -0.19660000000000000          8.0187710638224274E-011
 -0.19599999999999998          6.6963518063900551E-011
 -0.19539999999999999          1.6575707820210006E-011
 -0.19479999999999997         -4.3770424784650430E-011
 -0.19419999999999998         -4.2444037867683804E-011
 -0.19359999999999999         -3.0435959308405813E-011
 -0.19299999999999998          1.2870104287854289E-012
 -0.19239999999999999         -2.8222903181163161E-011
 -0.19180000000000000         -5.0607807874913924E-012
 -0.19119999999999998          1.0505915581937586E-011
 -0.19059999999999999          5.4614698180577292E-011
 -0.18999999999999997          4.9913718991323464E-011
 -0.18939999999999999          2.4087066976402616E-012
 -0.18880000000000000          5.4372912422495645E-013
 -0.18819999999999998          3.6435559430669784E-011
 -0.18759999999999999          2.0225359581571567E-011
 -0.18699999999999997         -1.2458517724411866E-011
 -0.18639999999999998         -4.0689666913618083E-011
 -0.18579999999999999         -6.5917035718676686E-011
 -0.18519999999999998         -8.1901888049351612E-011
 -0.18459999999999999         -6.9630204380111138E-011
 -0.18400000000000000         -4.1872335460046983E-011
 -0.18339999999999998          4.5367831019715865E-011
 -0.18279999999999999          1.2027447093831967E-010
 -0.18219999999999997          9.0610977054872421E-011
 -0.18159999999999998          6.3725302812400741E-011
 -0.18099999999999999          7.5681258135396057E-012
 -0.18039999999999998         -2.2002479699301247E-011
 -0.17979999999999999         -6.8748978732102728E-011
 -0.17920000000000000         -9.9524520569271857E-011
 -0.17859999999999998         -9.3454799454661952E-011
 -0.17799999999999999         -8.8617987947792187E-011
 -0.17739999999999997         -9.1665175450117431E-011
 -0.17679999999999998         -4.9854734923693300E-011
 -0.17620000000000000         -7.1583637455130411E-012
 -0.17559999999999998          5.6587245306216616E-011
 -0.17499999999999999          9.6715274677805496E-011
 -0.17440000000000000          8.3138773643298691E-011
 -0.17379999999999998          2.9458879780008829E-011
 -0.17319999999999999          5.6976413170817253E-011
 -0.17259999999999998          5.3796783000548132E-011
 -0.17199999999999999         -2.5110029073377449E-012
 -0.17140000000000000         -3.9625875497550922E-011
 -0.17079999999999998         -2.0117612437031696E-011
 -0.17019999999999999         -3.1121862031913139E-011
 -0.16959999999999997          3.5729548659990673E-012
 -0.16899999999999998         -7.4214467904454295E-011
 -0.16839999999999999         -5.0814408236732334E-011
 -0.16779999999999998          1.0706196346133012E-010
 -0.16719999999999999          8.8224504091183320E-011
 -0.16660000000000000          7.7696071798527555E-011
 -0.16599999999999998          2.8496949591727549E-011
 -0.16539999999999999         -9.6797722615171722E-011
 -0.16479999999999997         -4.1159169822391206E-011
 -0.16419999999999998         -1.6461648710830445E-010
 -0.16360000000000000         -8.5573950703299317E-011
 -0.16299999999999998         -7.6084999411918375E-011
 -0.16239999999999999         -5.3265197808016751E-011
 -0.16180000000000000          1.4435959372338658E-010
 -0.16119999999999998          1.7956627851312135E-010
 -0.16059999999999999          1.7294451981619829E-010
 -0.15999999999999998          1.6109674705333532E-010
 -0.15939999999999999          1.3029412271325924E-010
 -0.15880000000000000         -1.5092959868012734E-011
 -0.15819999999999998         -1.4471077114386333E-010
 -0.15759999999999999         -1.6280465864326743E-010
 -0.15700000000000000         -3.1525376753549494E-010
 -0.15639999999999998         -1.5025328203854826E-010
 -0.15579999999999999         -1.5474337089482759E-010
 -0.15519999999999998          3.1905034170165436E-012
 -0.15459999999999999          5.4471229610220107E-011
 -0.15400000000000000         -2.0711526244054923E-011
 -0.15339999999999998         -1.5569569938866934E-011
 -0.15279999999999999          1.3275567277426514E-011
 -0.15220000000000000          2.0340004680541313E-010
 -0.15159999999999998          2.7787894207875752E-010
 -0.15100000000000000          1.2411116578903147E-010
 -0.15039999999999998          2.4914924290353468E-011
 -0.14979999999999999         -6.9213898501452320E-011
 -0.14920000000000000         -2.5579469098424568E-010
 -0.14860000000000001         -4.0031436498999540E-010
 -0.14799999999999996         -2.6941218700393676E-010
 -0.14739999999999998         -1.6445723949320978E-010
 -0.14679999999999999          4.2242796066682686E-011
 -0.14620000000000000          2.4767046746809740E-010
 -0.14560000000000001          2.8219876435642277E-010
 -0.14499999999999996          1.6644076394900509E-010
 -0.14439999999999997          8.4131659972008777E-011
 -0.14379999999999998          4.9885833311447136E-013
 -0.14319999999999999         -6.8990611834518489E-011
 -0.14260000000000000         -9.9585908963639724E-011
 -0.14200000000000002          7.2020362763824952E-012
 -0.14139999999999997          1.1232539898209382E-010
 -0.14079999999999998          1.6985097356370105E-011
 -0.14019999999999999         -9.1882397523779247E-011
 -0.13960000000000000         -9.9476371584472645E-011
 -0.13900000000000001         -1.2081269318287013E-010
 -0.13839999999999997         -9.2673320406522208E-011
 -0.13779999999999998         -4.0076580942738360E-011
 -0.13719999999999999          1.3749053284772828E-010
 -0.13660000000000000          2.4961252509392295E-010
 -0.13600000000000001          2.8655797179588660E-010
 -0.13539999999999996          2.7127391999393069E-010
 -0.13479999999999998          1.4809213577660074E-010
 -0.13419999999999999         -9.8684588278885599E-011
 -0.13360000000000000         -4.0398009937270274E-010
 -0.13300000000000001         -3.4644215274326484E-010
 -0.13240000000000002         -3.6842945361215129E-010
 -0.13179999999999997         -2.0203115222439116E-011
 -0.13119999999999998          2.4252033714589061E-010
 -0.13059999999999999          4.2023587387696182E-010
 -0.13000000000000000          2.3378846081278937E-010
 -0.12940000000000002          1.4240660040076847E-010
 -0.12879999999999997         -7.1560056491559720E-011
 -0.12819999999999998         -1.3721644653852394E-010
 -0.12759999999999999         -1.5686175969253924E-010
 -0.12700000000000000         -2.0562726521511365E-010
 -0.12640000000000001         -5.6844633167241199E-011
 -0.12579999999999997         -3.0394423089497025E-011
 -0.12519999999999998         -1.6153164916765661E-010
 -0.12459999999999999         -1.6460639795656817E-010
 -0.12400000000000000         -3.3050642778142958E-010
 -0.12340000000000001         -2.5531801672862287E-010
 -0.12279999999999996         -1.0302115410754098E-010
 -0.12219999999999998          1.9303551812566155E-010
 -0.12159999999999999          4.1974931863641984E-010
 -0.12100000000000000          5.6254012559264766E-010
 -0.12040000000000001          6.7123179237071895E-010
 -0.11980000000000002          3.4112851432510638E-010
 -0.11919999999999997         -3.3457854542451315E-011
 -0.11859999999999998         -3.6297609362634375E-010
 -0.11799999999999999         -4.6253309515797980E-010
 -0.11740000000000000         -4.1800954364568099E-010
 -0.11680000000000001         -2.1142956829756088E-010
 -0.11619999999999997          1.9063108036565524E-010
 -0.11559999999999998          2.5430102468249061E-010
 -0.11499999999999999          2.6657834273358105E-010
 -0.11440000000000000          7.6338060872593871E-011
 -0.11380000000000001         -1.4470429021695708E-010
 -0.11319999999999997         -2.4836085965596055E-010
 -0.11259999999999998         -3.3422506429126031E-010
 -0.11199999999999999         -1.7664511520187887E-010
 -0.11140000000000000          3.5882616322702177E-011
 -0.11080000000000001          2.6023305732536528E-010
 -0.11019999999999996          2.7697832916118159E-010
 -0.10959999999999998          1.9444598708950878E-010
 -0.10899999999999999         -1.2448087005623165E-010
 -0.10840000000000000         -3.7992520240948124E-010
 -0.10780000000000001         -3.4321734343478738E-010
 -0.10720000000000002         -1.4261647418578605E-010
 -0.10659999999999997          4.3652925024728617E-011
 -0.10599999999999998          3.2698738161585084E-010
 -0.10539999999999999          3.3820818368113237E-010
 -0.10480000000000000          2.2604140781368187E-010
 -0.10420000000000001          4.7104091460692388E-011
 -0.10359999999999997         -2.2172719216229098E-010
 -0.10299999999999998         -2.3381485636519983E-010
 -0.10239999999999999         -1.7031960564128923E-010
 -0.10180000000000000         -2.5922559238056309E-011
 -0.10120000000000001          2.6380991835495138E-010
 -0.10059999999999997          3.8395009394065482E-010
  -9.9999999999999978E-002     2.8290164655331296E-010
  -9.9399999999999988E-002     6.4381534825574960E-011
  -9.8799999999999999E-002    -2.6853994028464001E-010
  -9.8200000000000010E-002    -4.7899612054536078E-010
  -9.7600000000000020E-002    -5.5491389261419499E-010
  -9.6999999999999975E-002    -3.3118280340360684E-010
  -9.6399999999999986E-002     1.8039221158505647E-011
  -9.5799999999999996E-002     4.1655026650211369E-010
  -9.5200000000000007E-002     5.3790361054240066E-010
  -9.4600000000000017E-002     4.0923886501786910E-010
  -9.3999999999999972E-002     2.0304589953834551E-010
  -9.3399999999999983E-002    -2.5481852738984401E-011
  -9.2799999999999994E-002    -1.4042560170235419E-010
  -9.2200000000000004E-002    -1.6708723293845651E-010
  -9.1600000000000015E-002    -5.2779790954415873E-011
  -9.0999999999999970E-002     4.3079508710297532E-011
  -9.0399999999999980E-002     7.1661516998222652E-011
  -8.9799999999999991E-002    -7.9961696985986208E-011
  -8.9200000000000002E-002    -2.3752766420415128E-010
  -8.8600000000000012E-002    -4.1173150999718189E-010
  -8.7999999999999967E-002    -3.3777217134378645E-010
  -8.7399999999999978E-002    -2.3425913986407920E-010
  -8.6799999999999988E-002     8.5977926167490892E-011
  -8.6199999999999999E-002     3.2212768563688599E-010
  -8.5600000000000009E-002     4.7214820941832158E-010
  -8.5000000000000020E-002     4.8734566382435673E-010
  -8.4399999999999975E-002     3.0201227629866878E-010
  -8.3799999999999986E-002    -2.0884596135806177E-011
  -8.3199999999999996E-002    -2.9518892885604942E-010
  -8.2600000000000007E-002    -4.0254985456122938E-010
  -8.2000000000000017E-002    -3.4455391317855799E-010
  -8.1399999999999972E-002    -1.8372559029700142E-010
  -8.0799999999999983E-002    -1.0216836057730383E-011
  -8.0199999999999994E-002     9.7162618228896491E-011
  -7.9600000000000004E-002     1.4080386856463178E-010
  -7.9000000000000015E-002     8.0612967690019133E-011
  -7.8399999999999970E-002     3.8544421127051365E-011
  -7.7799999999999980E-002     5.9425686593783666E-011
  -7.7199999999999991E-002     1.2311440755752301E-010
  -7.6600000000000001E-002     1.9808230056206355E-010
  -7.6000000000000012E-002     2.4595725456322270E-010
  -7.5400000000000023E-002     1.7172531452391837E-010
  -7.4799999999999978E-002     2.0717897883382186E-012
  -7.4199999999999988E-002    -2.3446808383731366E-010
  -7.3599999999999999E-002    -4.1542955186990582E-010