 -0.39999999999999997          0.0000000000000000     
 -0.39939999999999998         -5.5726442356467616E-018
 -0.39879999999999999         -1.6343310465730838E-017
 -0.39819999999999994         -3.1433180914370272E-017
 -0.39759999999999995         -4.9629129452397351E-017
 -0.39699999999999996         -6.9589897605808367E-017
 -0.39639999999999997         -9.0037365596755783E-017
 -0.39579999999999999         -1.0989394869765452E-016
 -0.39519999999999994         -1.2834968488758245E-016
 -0.39459999999999995         -1.4486560974917963E-016
 -0.39399999999999996         -1.5913570616047084E-016
 -0.39339999999999997         -1.7103368680297638E-016
 -0.39279999999999998         -1.8056447505570216E-016
 -0.39219999999999999         -1.8782947664430230E-016
 -0.39159999999999995         -1.9300431855643404E-016
 -0.39099999999999996         -1.9632311275778459E-016
 -0.39039999999999997         -1.9806351400148596E-016
 -0.38979999999999998         -1.9853134088616635E-016
 -0.38919999999999999         -1.9804704979857371E-016
 -0.38859999999999995         -1.9693783368436460E-016
 -0.38799999999999996         -1.9553660296158957E-016
 -0.38739999999999997         -1.9418555894093936E-016
 -0.38679999999999998         -1.9323847022679065E-016
 -0.38619999999999999         -1.9305539199617551E-016
 -0.38559999999999994         -1.9398629444009779E-016
 -0.38499999999999995         -1.9634491062128659E-016
 -0.38439999999999996         -2.0037911679082201E-016
 -0.38379999999999997         -2.0624622284887693E-016
 -0.38319999999999999         -2.1400057125297363E-016
 -0.38259999999999994         -2.2359658104263800E-016
 -0.38199999999999995         -2.3490531792143016E-016
 -0.38139999999999996         -2.4773850234704325E-016
 -0.38079999999999997         -2.6187325877523098E-016
 -0.38019999999999998         -2.7707268267855817E-016
 -0.37959999999999999         -2.9310103419989209E-016
 -0.37899999999999995         -3.0973538485542726E-016
 -0.37839999999999996         -3.2677609956740768E-016
 -0.37779999999999997         -3.4405702752927350E-016
 -0.37719999999999998         -3.6145325785108431E-016
 -0.37659999999999999         -3.7888252245783804E-016
 -0.37599999999999995         -3.9629802277919889E-016
 -0.37539999999999996         -4.1367342138446317E-016
 -0.37479999999999997         -4.3098611308185102E-016
 -0.37419999999999998         -4.4820679582534338E-016
 -0.37359999999999999         -4.6530193240418489E-016
 -0.37300000000000000         -4.8225053228315141E-016
 -0.37239999999999995         -4.9906879496735917E-016
 -0.37179999999999996         -5.1583200050999540E-016
 -0.37119999999999997         -5.3268117989677794E-016
 -0.37059999999999998         -5.4980871548585193E-016
 -0.37000000000000000         -5.6742477732725483E-016
 -0.36939999999999995         -5.8571534209246818E-016
 -0.36879999999999996         -6.0480624711371843E-016
 -0.36819999999999997         -6.2474667324150554E-016
 -0.36759999999999998         -6.4551750929495708E-016
 -0.36699999999999999         -6.6706158055013340E-016
 -0.36639999999999995         -6.8932515335444304E-016
 -0.36579999999999996         -7.1229642218618365E-016
 -0.36519999999999997         -7.3602980891221631E-016
 -0.36459999999999998         -7.6064945679887299E-016
 -0.36399999999999999         -7.8633340158375470E-016
 -0.36339999999999995         -8.1328387238301840E-016
 -0.36279999999999996         -8.4169272215921720E-016
 -0.36219999999999997         -8.7171114629343597E-016
 -0.36159999999999998         -9.0342893027808369E-016
 -0.36099999999999999         -9.3686661466213126E-016
 -0.36039999999999994         -9.7198110664438713E-016
 -0.35979999999999995         -1.0086807149083110E-015
 -0.35919999999999996         -1.0468483371489450E-015
 -0.35859999999999997         -1.0863657063910287E-015
 -0.35799999999999998         -1.1271361549994568E-015
 -0.35739999999999994         -1.1691001789096846E-015
 -0.35679999999999995         -1.2122425315286615E-015
 -0.35619999999999996         -1.2565887297239235E-015
 -0.35559999999999997         -1.3021925600876214E-015
 -0.35499999999999998         -1.3491181853655097E-015
 -0.35439999999999999         -1.3974224626441727E-015
 -0.35379999999999995         -1.4471430848897633E-015
 -0.35319999999999996         -1.4982958280909241E-015
 -0.35259999999999997         -1.5508816451597208E-015
 -0.35199999999999998         -1.6049008537335086E-015
 -0.35139999999999999         -1.6603679592515092E-015
 -0.35080000000000000         -1.7173226663831252E-015
 -0.35019999999999996         -1.7758322083685448E-015
 -0.34959999999999997         -1.8359854177881114E-015
 -0.34899999999999998         -1.8978834091999035E-015
 -0.34839999999999999         -1.9616304735355517E-015
 -0.34780000000000000         -2.0273303723310947E-015
 -0.34719999999999995         -2.0950860200896239E-015
 -0.34659999999999996         -2.1650032959295460E-015
 -0.34599999999999997         -2.2371908318263465E-015
 -0.34539999999999998         -2.3117576832719844E-015
 -0.34480000000000000         -2.3888054942201300E-015
 -0.34419999999999995         -2.4684234148884820E-015
 -0.34359999999999996         -2.5506870429675829E-015
 -0.34299999999999997         -2.6356660469173442E-015
 -0.34239999999999998         -2.7234387772853870E-015
 -0.34179999999999999         -2.8141066662671450E-015
 -0.34119999999999995         -2.9078014274859162E-015
 -0.34059999999999996         -3.0046799737951796E-015
 -0.33999999999999997         -3.1049059943119919E-015
 -0.33939999999999998         -3.2086256022197546E-015
 -0.33879999999999999         -3.3159427708127432E-015
 -0.33819999999999995         -3.4269068397601351E-015
 -0.33759999999999996         -3.5415139974136678E-015
 -0.33699999999999997         -3.6597235861918730E-015
 -0.33639999999999998         -3.7814837253267314E-015
 -0.33579999999999999         -3.9067573571268006E-015
 -0.33519999999999994         -4.0355457521415016E-015
 -0.33459999999999995         -4.1678976147653014E-015
 -0.33399999999999996         -4.3039124713695025E-015
 -0.33339999999999997         -4.4437288118409808E-015
 -0.33279999999999998         -4.5875126546373983E-015
 -0.33219999999999994         -4.7354376415129421E-015
 -0.33160000000000001         -4.8876723320241157E-015
 -0.33099999999999996         -5.0443674980355305E-015
 -0.33039999999999997         -5.2056506180057482E-015
 -0.32979999999999998         -5.3716288416025965E-015
 -0.32919999999999999         -5.5423983070655887E-015
 -0.32860000000000000         -5.7180581172495536E-015
 -0.32799999999999996         -5.8987264332506333E-015
 -0.32739999999999997         -6.0845569915487542E-015
 -0.32679999999999998         -6.2757458802712059E-015
 -0.32619999999999999         -6.4725306921596931E-015
 -0.32560000000000000         -6.6751778190761273E-015
 -0.32499999999999996         -6.8839621232118925E-015
 -0.32439999999999997         -7.0991389850005859E-015
 -0.32379999999999998         -7.3209235508108102E-015
 -0.32319999999999999         -7.5494776039354908E-015
 -0.32260000000000000         -7.7849087175589290E-015
 -0.32199999999999995         -8.0272905835475361E-015
 -0.32139999999999996         -8.2766824942076198E-015
 -0.32079999999999997         -8.5331598354714856E-015
 -0.32019999999999998         -8.7968276394245933E-015
 -0.31960000000000000         -9.0678307487009231E-015
 -0.31899999999999995         -9.3463487342852931E-015
 -0.31839999999999996         -9.6325840370520971E-015
 -0.31779999999999997         -9.9267492622710958E-015
 -0.31719999999999998         -1.0229059556310892E-014
 -0.31659999999999999         -1.0539726677408299E-014
 -0.31599999999999995         -1.0858962383800130E-014
 -0.31539999999999996         -1.1186978433723200E-014
 -0.31479999999999997         -1.1523988279480216E-014
 -0.31419999999999998         -1.1870206220406833E-014
 -0.31359999999999999         -1.2225846555838707E-014
 -0.31299999999999994         -1.2591127820276229E-014
 -0.31239999999999996         -1.2966278712615159E-014
 -0.31179999999999997         -1.3351549107574936E-014
 -0.31119999999999998         -1.3747210902731628E-014
 -0.31059999999999999         -1.4153562253682670E-014
 -0.30999999999999994         -1.4570921644816229E-014
 -0.30940000000000001         -1.4999610101619314E-014
 -0.30879999999999996         -1.5439943567381251E-014
 -0.30819999999999997         -1.5892220197699473E-014
 -0.30759999999999998         -1.6356721207512470E-014
 -0.30700000000000000         -1.6833704094836206E-014
 -0.30640000000000001         -1.7323416193291280E-014
 -0.30579999999999996         -1.7826104836498290E-014
 -0.30519999999999997         -1.8342030910604989E-014
 -0.30459999999999998         -1.8871473936483973E-014
 -0.30399999999999999         -1.9414738845996253E-014
 -0.30340000000000000         -1.9972159370123047E-014
 -0.30279999999999996         -2.0544089568636306E-014
 -0.30219999999999997         -2.1130897053835140E-014
 -0.30159999999999998         -2.1732946049886868E-014
 -0.30099999999999999         -2.2350588922497548E-014
 -0.30040000000000000         -2.2984162790780187E-014
 -0.29979999999999996         -2.3633982750991163E-014
 -0.29919999999999997         -2.4300346958727910E-014
 -0.29859999999999998         -2.4983553569587862E-014
 -0.29799999999999999         -2.5683914291695607E-014
 -0.29740000000000000         -2.6401773020427732E-014
 -0.29679999999999995         -2.7137507532478712E-014
 -0.29619999999999996         -2.7891534568058596E-014
 -0.29559999999999997         -2.8664296278365850E-014
 -0.29499999999999998         -2.9456248367126098E-014
 -0.29440000000000000         -3.0267844843999067E-014
 -0.29379999999999995         -3.1099526166117331E-014
 -0.29319999999999996         -3.1951715849954515E-014
 -0.29259999999999997         -3.2824823859457092E-014
 -0.29199999999999998         -3.3719256770439743E-014
 -0.29139999999999999         -3.4635434711244306E-014
 -0.29079999999999995         -3.5573808303398721E-014
 -0.29019999999999996         -3.6534851885353450E-014
 -0.28959999999999997         -3.7519063512481479E-014
 -0.28899999999999998         -3.8526958180814738E-014
 -0.28839999999999999         -3.9559057662648736E-014
 -0.28779999999999994         -4.0615876954015404E-014
 -0.28720000000000001         -4.1697937827210249E-014
 -0.28659999999999997         -4.2805755278265203E-014
 -0.28599999999999998         -4.3939854467607564E-014
 -0.28539999999999999         -4.5100760555664629E-014
 -0.28479999999999994         -4.6288991926600118E-014
 -0.28420000000000001         -4.7505066964577750E-014
 -0.28359999999999996         -4.8749500665629455E-014
 -0.28299999999999997         -5.0022808025787166E-014
 -0.28239999999999998         -5.1325520981741757E-014
 -0.28179999999999999         -5.2658191798974838E-014
 -0.28120000000000001         -5.4021396459890542E-014
 -0.28059999999999996         -5.5415741440079103E-014
 -0.27999999999999997         -5.6841836603262544E-014
 -0.27939999999999998         -5.8300288425031099E-014
 -0.27879999999999999         -5.9791683052184269E-014
 -0.27820000000000000         -6.1316593078994397E-014
 -0.27759999999999996         -6.2875574159074882E-014
 -0.27699999999999997         -6.4469168393511966E-014
 -0.27639999999999998         -6.6097951764709784E-014
 -0.27579999999999999         -6.7762513807599623E-014
 -0.27520000000000000         -6.9463477938430662E-014
 -0.27459999999999996         -7.1201494678506394E-014
 -0.27399999999999997         -7.2977241654184621E-014
 -0.27339999999999998         -7.4791403268086726E-014
 -0.27279999999999999         -7.6644691027888401E-014
 -0.27220000000000000         -7.8537823217528918E-014
 -0.27159999999999995         -8.0471545226001862E-014
 -0.27100000000000002         -8.2446615994827971E-014
 -0.27039999999999997         -8.4463794465527986E-014
 -0.26979999999999998         -8.6523826027095491E-014
 -0.26919999999999999         -8.8627442515996913E-014
 -0.26859999999999995         -9.0775375768698680E-014
 -0.26800000000000002         -9.2968330516612907E-014
 -0.26739999999999997         -9.5207045372469601E-014
 -0.26679999999999998         -9.7492272501525923E-014
 -0.26619999999999999         -9.9824797950356925E-014
 -0.26559999999999995         -1.0220546197564628E-013
 -0.26500000000000001         -1.0463510483407767E-013
 -0.26439999999999997         -1.0711458033486193E-013
 -0.26379999999999998         -1.0964470162962842E-013
 -0.26319999999999999         -1.1222624121242503E-013
 -0.26259999999999994         -1.1485990381466388E-013
 -0.26200000000000001         -1.1754636706270277E-013
 -0.26139999999999997         -1.2028630858289951E-013
 -0.26079999999999998         -1.2308043310666622E-013
 -0.26019999999999999         -1.2592947247046932E-013
 -0.25959999999999994         -1.2883422627341101E-013
 -0.25900000000000001         -1.3179553477217498E-013
 -0.25839999999999996         -1.3481422467091775E-013
 -0.25779999999999997         -1.3789117688390445E-013
 -0.25719999999999998         -1.4102720456276446E-013
 -0.25659999999999994         -1.4422312085912714E-013
 -0.25600000000000001         -1.4747975247714901E-013
 -0.25539999999999996         -1.5079792612098658E-013
 -0.25479999999999997         -1.5417846849479638E-013
 -0.25419999999999998         -1.5762223340778925E-013
 -0.25359999999999999         -1.6113007466917600E-013
 -0.25300000000000000         -1.6470287319322180E-013
 -0.25239999999999996         -1.6834149634166462E-013
 -0.25179999999999997         -1.7204685213382392E-013
 -0.25119999999999998         -1.7581987569407348E-013
 -0.25059999999999999         -1.7966151569931421E-013
 -0.24999999999999997         -1.8357273437897420E-013
 -0.24939999999999998         -1.8755448040995437E-013
 -0.24879999999999999         -1.9160767536410134E-013
 -0.24819999999999998         -1.9573322726073455E-013
 -0.24759999999999999         -1.9993198990906486E-013
 -0.24699999999999997         -2.0420480356577592E-013
 -0.24639999999999998         -2.0855249493502426E-013
 -0.24579999999999999         -2.1297590427349355E-013
 -0.24519999999999997         -2.1747588539039464E-013
 -0.24459999999999998         -2.2205330564746550E-013
 -0.24399999999999997         -2.2670903240644413E-013
 -0.24339999999999998         -2.3144396013412283E-013
 -0.24279999999999999         -2.3625890198213095E-013
 -0.24219999999999997         -2.4115472531220650E-013
 -0.24159999999999998         -2.4613224327597882E-013
 -0.24099999999999999         -2.5119232323518592E-013
 -0.24039999999999997         -2.5633575123640284E-013
 -0.23979999999999999         -2.6156336753631326E-013
 -0.23919999999999997         -2.6687593107643792E-013
 -0.23859999999999998         -2.7227425500840619E-013
 -0.23799999999999999         -2.7775909827373879E-013
 -0.23739999999999997         -2.8333121981395648E-013
 -0.23679999999999998         -2.8899140567563431E-013
 -0.23619999999999999         -2.9474044190534732E-013
 -0.23559999999999998         -3.0057908744461626E-013
 -0.23499999999999999         -3.0650815544507048E-013
 -0.23439999999999997         -3.1252851326844799E-013
 -0.23379999999999998         -3.1864097406637815E-013
 -0.23319999999999999         -3.2484635099049031E-013
 -0.23259999999999997         -3.3114537587725090E-013
 -0.23199999999999998         -3.3753880766818067E-013
 -0.23139999999999999         -3.4402732398963742E-013
 -0.23079999999999998         -3.5061157536292464E-013
 -0.23019999999999999         -3.5729223941440014E-013
 -0.22959999999999997         -3.6406999377042171E-013
 -0.22899999999999998         -3.7094557026745578E-013
 -0.22839999999999999         -3.7791964653186016E-013
 -0.22779999999999997         -3.8499292729504697E-013
 -0.22719999999999999         -3.9216611728842832E-013
 -0.22659999999999997         -3.9943983992825338E-013
 -0.22599999999999998         -4.0681469152571703E-013
 -0.22539999999999999         -4.1429129549706845E-013
 -0.22479999999999997         -4.2187016683833956E-013
 -0.22419999999999998         -4.2955182054556229E-013
 -0.22359999999999999         -4.3733674450971427E-013
 -0.22299999999999998         -4.4522539951671880E-013
 -0.22239999999999999         -4.5321819214239056E-013
 -0.22179999999999997         -4.6131550185748993E-013
 -0.22119999999999998         -4.6951776234288589E-013
 -0.22059999999999999         -4.7782529885923020E-013
 -0.21999999999999997         -4.8623859929750046E-013
 -0.21939999999999998         -4.9475793470823981E-013
 -0.21879999999999999         -5.0338363035209999E-013
 -0.21819999999999998         -5.1211595727962411E-013
 -0.21759999999999999         -5.2095513233124668E-013
 -0.21699999999999997         -5.2990131813729358E-013
 -0.21639999999999998         -5.3895456890787341E-013
 -0.21579999999999999         -5.4811499306320344E-013
 -0.21519999999999997         -5.5738275323360953E-013
 -0.21459999999999999         -5.6675790362920031E-013
 -0.21400000000000000         -5.7624049846008440E-013
 -0.21339999999999998         -5.8583070035658769E-013
 -0.21279999999999999         -5.9552856352881878E-013
 -0.21219999999999997         -6.0533403376666906E-013
 -0.21159999999999998         -6.1524711107013852E-013
 -0.21099999999999999         -6.2526774122911855E-013
 -0.21039999999999998         -6.3539576161328326E-013
 -0.20979999999999999         -6.4563095538219817E-013
 -0.20920000000000000         -6.5597326832575464E-013
 -0.20859999999999998         -6.6642248360351819E-013
 -0.20799999999999999         -6.7697838437505431E-013
 -0.20739999999999997         -6.8764059116960263E-013
 -0.20679999999999998         -6.9840883293662004E-013
 -0.20619999999999999         -7.0928273020534616E-013
 -0.20559999999999998         -7.2026179508480337E-013
 -0.20499999999999999         -7.3134564810423131E-013
 -0.20439999999999997         -7.4253369295243510E-013
 -0.20379999999999998         -7.5382538752832851E-013
 -0.20319999999999999         -7.6522008131060804E-013
 -0.20259999999999997         -7.7671706956786157E-013
 -0.20199999999999999         -7.8831553914845975E-013
 -0.20140000000000000         -8.0001462269066459E-013
 -0.20079999999999998         -8.1181345283273809E-013
 -0.20019999999999999         -8.2371105379272502E-013
 -0.19959999999999997         -8.3570639557856152E-013
 -0.19899999999999998         -8.4779844819818373E-013
 -0.19839999999999999         -8.5998629007974503E-013
 -0.19779999999999998         -8.7226878281096432E-013
 -0.19719999999999999         -8.8464473376945185E-013
 -0.19660000000000000         -8.9711295033281790E-013
 -0.19599999999999998         -9.0967207724834687E-013
 -0.19539999999999999         -9.2232070505321451E-013
 -0.19479999999999997         -9.3505758691492247E-013
 -0.19419999999999998         -9.4788120495042927E-013
 -0.19359999999999999         -9.6079014969691068E-013
 -0.19299999999999998         -9.7378279485110797E-013
 -0.19239999999999999         -9.8685762252997966E-013
 -0.19180000000000000         -1.0000128980100498E-012
 -0.19119999999999998         -1.0132468865678423E-012
 -0.19059999999999999         -1.0265579619000986E-012
 -0.18999999999999997         -1.0399443892833427E-012
 -0.18939999999999999         -1.0534043255738812E-012
 -0.18880000000000000         -1.0669358192078038E-012
 -0.18819999999999998         -1.0805368102009827E-012
 -0.18759999999999999         -1.0942052385692902E-012
 -0.18699999999999997         -1.1079389359083813E-012
 -0.18639999999999998         -1.1217357338139111E-012
 -0.18579999999999999         -1.1355931386208828E-012
 -0.18519999999999998         -1.1495087650845170E-012
 -0.18459999999999999         -1.1634801195398170E-012
 -0.18400000000000000         -1.1775048167420032E-012
 -0.18339999999999998         -1.1915802546058618E-012
 -0.18279999999999999         -1.2057039394663960E-012
 -0.18219999999999997         -1.2198731608181745E-012
 -0.18159999999999998         -1.2340850997355490E-012
 -0.18099999999999999         -1.2483369372928710E-012
 -0.18039999999999998         -1.2626256377240574E-012
 -0.17979999999999999         -1.2769482736832427E-012
 -0.17920000000000000         -1.2913017009841266E-012
 -0.17859999999999998         -1.3056826670201915E-012
 -0.17799999999999999         -1.3200881360253547E-012
 -0.17739999999999997         -1.3345146385526641E-012
 -0.17679999999999998         -1.3489590304158194E-012
 -0.17620000000000000         -1.3634177337476516E-012
 -0.17559999999999998         -1.3778873875214259E-012
 -0.17499999999999999         -1.3923645222901904E-012
 -0.17440000000000000         -1.4068455601867758E-012
 -0.17379999999999998         -1.4213267065035784E-012
 -0.17319999999999999         -1.4358041665329946E-012
 -0.17259999999999998         -1.4502743624078551E-012
 -0.17199999999999999         -1.4647332825801218E-012
 -0.17140000000000000         -1.4791770239219737E-012
 -0.17079999999999998         -1.4936014664651553E-012
 -0.17019999999999999         -1.5080024902414113E-012
 -0.16959999999999997         -1.5223760837027034E-012
 -0.16899999999999998         -1.5367179100403416E-012
 -0.16839999999999999         -1.5510238492860706E-012
 -0.16779999999999998         -1.5652896730514176E-012
 -0.16719999999999999         -1.5795108276872583E-012
 -0.16660000000000000         -1.5936829763849025E-012
 -0.16599999999999998         -1.6078015654952260E-012
 -0.16539999999999999         -1.6218620413691043E-012
 -0.16479999999999997         -1.6358596335169784E-012
 -0.16419999999999998         -1.6497896798695066E-012
 -0.16360000000000000         -1.6636473015169129E-012
 -0.16299999999999998         -1.6774277279696381E-012
 -0.16239999999999999         -1.6911258634774717E-012
 -0.16180000000000000         -1.7047368291306375E-012
 -0.16119999999999998         -1.7182554207587075E-012
 -0.16059999999999999         -1.7316766510316883E-012
 -0.15999999999999998         -1.7449953157791520E-012
 -0.15939999999999999         -1.7582062108306706E-012
 -0.15880000000000000         -1.7713041320158163E-012
 -0.15819999999999998         -1.7842836583237265E-012
 -0.15759999999999999         -1.7971393687435389E-012
 -0.15700000000000000         -1.8098657338441737E-012
 -0.15639999999999998         -1.8224573326147686E-012
 -0.15579999999999999         -1.8349083103635921E-012
 -0.15519999999999998         -1.8472131376595646E-012
 -0.15459999999999999         -1.8593663934918236E-012
 -0.15400000000000000         -1.8713622231686378E-012
 -0.15339999999999998         -1.8831947719982756E-012
 -0.15279999999999999         -1.8948584021294401E-012
 -0.15220000000000000         -1.9063472588704000E-012
 -0.15159999999999998         -1.9176557043698583E-012
 -0.15100000000000000         -1.9287778839360836E-012
 -0.15039999999999998         -1.9397079428773445E-012
 -0.14979999999999999         -1.9504398096614750E-012
 -0.14920000000000000         -1.9609674127563093E-012
 -0.14860000000000001         -1.9712851143105503E-012
 -0.14799999999999996         -1.9813866259515978E-012
 -0.14739999999999998         -1.9912660929877202E-012
 -0.14679999999999999         -2.0009172270463171E-012
 -0.14620000000000000         -2.0103339565952227E-012
 -0.14560000000000001         -2.0195099932618366E-012
 -0.14499999999999996         -2.0284394823544272E-012
 -0.14439999999999997         -2.0371161355003942E-012
 -0.14379999999999998         -2.0455338811675716E-012
 -0.14319999999999999         -2.0536866478237936E-012
 -0.14260000000000000         -2.0615679302560252E-012
 -0.14200000000000002         -2.0691716569321006E-012
 -0.14139999999999997         -2.0764913226389847E-012
 -0.14079999999999998         -2.0835208558445117E-012
 -0.14019999999999999         -2.0902539681760812E-012
 -0.13960000000000000         -2.0966843712610927E-012
 -0.13900000000000001         -2.1028055598865114E-012
 -0.13839999999999997         -2.1086116793606058E-012
 -0.13779999999999998         -2.1140964413107755E-012
 -0.13719999999999999         -2.1192531236835510E-012
 -0.13660000000000000         -2.1240760886276355E-012
 -0.13600000000000001         -2.1285588309299941E-012
 -0.13539999999999996         -2.1326950622180263E-012
 -0.13479999999999998         -2.1364789278000007E-012
 -0.13419999999999999         -2.1399041393033169E-012
 -0.13360000000000000         -2.1429646251958090E-012
 -0.13300000000000001         -2.1456543139453110E-012
 -0.13240000000000002         -2.1479671340196571E-012
 -0.13179999999999997         -2.1498972307271158E-012
 -0.13119999999999998         -2.1514387493759557E-012
 -0.13059999999999999         -2.1525854015935764E-012
 -0.13000000000000000         -2.1533317663691154E-012
 -0.12940000000000002         -2.1536717721704068E-012
 -0.12879999999999997         -2.1535997811461538E-012
 -0.12819999999999998         -2.1531103722854938E-012
 -0.12759999999999999         -2.1521976908966955E-012
 -0.12700000000000000         -2.1508560991284620E-012
 -0.12640000000000001         -2.1490799591294962E-012
 -0.12579999999999997         -2.1468636330485014E-012
 -0.12519999999999998         -2.1442019167150494E-012
 -0.12459999999999999         -2.1410891722778436E-012
 -0.12400000000000000         -2.1375204124068903E-012
 -0.12340000000000001         -2.1334904329317617E-012
 -0.12279999999999996         -2.1289942465224643E-012
 -0.12219999999999998         -2.1240266490085702E-012
 -0.12159999999999999         -2.1185826530600860E-012
 -0.12100000000000000         -2.1126572713470182E-012
 -0.12040000000000001         -2.1062457333798079E-012
 -0.11980000000000002         -2.0993434855093307E-012
 -0.11919999999999997         -2.0919459740864621E-012
 -0.11859999999999998         -2.0840482117812087E-012
 -0.11799999999999999         -2.0756462954657495E-012
 -0.11740000000000000         -2.0667356714909602E-012
 -0.11680000000000001         -2.0573120030481507E-012
 -0.11619999999999997         -2.0473716038499346E-012
 -0.11559999999999998         -2.0369103539280564E-012
 -0.11499999999999999         -2.0259245669951298E-012
 -0.11440000000000000         -2.0144105567637682E-012
 -0.11380000000000001         -2.0023648537870198E-012
 -0.11319999999999997         -1.9897837717774980E-012
 -0.11259999999999998         -1.9766640581286854E-012
 -0.11199999999999999         -1.9630024602340646E-012
 -0.11140000000000000         -1.9487957254871180E-012
 -0.11080000000000001         -1.9340414686430663E-012
 -0.11019999999999996         -1.9187364370953919E-012
 -0.10959999999999998         -1.9028780287588809E-012
 -0.10899999999999999         -1.8864640752291884E-012
 -0.10840000000000000         -1.8694921912615348E-012
 -0.10780000000000001         -1.8519604252920097E-012
 -0.10720000000000002         -1.8338663920758336E-012
 -0.10659999999999997         -1.8152084653097478E-012
 -0.10599999999999998         -1.7959850186904935E-012
 -0.10539999999999999         -1.7761942090743776E-012
 -0.10480000000000000         -1.7558349522592276E-012
 -0.10420000000000001         -1.7349058387822192E-012
 -0.10359999999999997         -1.7134057844411799E-012
 -0.10299999999999998         -1.6913340302945890E-012
 -0.10239999999999999         -1.6686899258211429E-012
 -0.10180000000000000         -1.6454729289197556E-012
 -0.10120000000000001         -1.6216828227499924E-012
 -0.10059999999999997         -1.5973193904714189E-012
  -9.9999999999999978E-002    -1.5723825236638178E-012
  -9.9399999999999988E-002    -1.5468725475878409E-012
  -9.8799999999999999E-002    -1.5207897875041398E-012
  -9.8200000000000010E-002    -1.4941347855138010E-012
  -9.7600000000000020E-002    -1.4669084089785622E-012
  -9.6999999999999975E-002    -1.4391115252601616E-012
  -9.6399999999999986E-002    -1.4107453269809889E-012
  -9.5799999999999996E-002    -1.3818111151836510E-012
  -9.5200000000000007E-002    -1.3523102993309721E-012
  -9.4600000000000017E-002    -1.3222447225666456E-012
  -9.3999999999999972E-002    -1.2916162280343646E-012
  -9.3399999999999983E-002    -1.2604270925586913E-012
  -9.2799999999999994E-002    -1.2286795929641880E-012
  -9.2200000000000004E-002    -1.1963764397562859E-012
  -9.1600000000000015E-002    -1.1635203434404162E-012
  -9.0999999999999970E-002    -1.1301143397826618E-012
  -9.0399999999999980E-002    -1.0961616813895403E-012
  -8.9799999999999991E-002    -1.0616656208675690E-012
  -8.9200000000000002E-002    -1.0266298445041344E-012
  -8.8600000000000012E-002    -9.9105803858662300E-013
  -8.7999999999999967E-002    -9.5495432308329020E-013
  -8.7399999999999978E-002    -9.1832292638260871E-013
  -8.6799999999999988E-002    -8.8116834792359433E-013
  -8.6199999999999999E-002    -8.4349519556548014E-013
  -8.5600000000000009E-002    -8.0530834821804231E-013
  -8.5000000000000020E-002    -7.6661290163149154E-013
  -8.4399999999999975E-002    -7.2741416839647299E-013
  -8.3799999999999986E-002    -6.8771767794406635E-013
  -8.3199999999999996E-002    -6.4752906812556854E-013
  -8.2600000000000007E-002    -6.0685435626303685E-013
  -8.2000000000000017E-002    -5.6569955967852859E-013
  -8.1399999999999972E-002    -5.2407091253453553E-013
  -8.0799999999999983E-002    -4.8197486583398397E-013
  -8.0199999999999994E-002    -4.3941816873539763E-013
  -7.9600000000000004E-002    -3.9640770592257180E-013
  -7.9000000000000015E-002    -3.5295060602479056E-013
  -7.8399999999999970E-002    -3.0905424161682682E-013
  -7.7799999999999980E-002    -2.6472617500883366E-013
  -7.7199999999999991E-002    -2.1997417179887152E-013
  -7.6600000000000001E-002    -1.7480620087290816E-013
  -7.6000000000000012E-002    -1.2923042085229153E-013
  -7.5400000000000023E-002    -8.3255152988695458E-014
  -7.4799999999999978E-002    -3.6888938762360060E-014
  -7.4199999999999988E-002     9.8594906110943681E-015
  -7.3599999999999999E-002     5.6981187075613032E-014